default_name
 25009
  34.4318112  56.0992938  40.8507456  34.8143885  55.1868232  40.6488993
  34.3940333  56.2207419  41.8528211  34.9032603  56.7831130  40.2759465
  33.0431624  56.1162911  40.4077246  32.4736784  56.3244814  41.1655576
  32.8333205  57.2002344  39.3482892  31.9253920  57.1377026  39.0131016
  32.9715292  58.0686956  39.7589991  33.7751587  57.0964103  38.1570834
  34.8061676  57.1794587  38.5007135  33.6332438  56.1341025  37.6636447
  33.4750744  58.2229284  37.1712734  34.1005302  59.3060320  37.3263372
  32.6225453  57.9904197  36.2725995  32.6087293  54.7613851  39.8505617
  31.6055928  54.6754546  39.1477481  33.3569285  53.7080094  40.1659769
  34.0827240  53.7384696  40.6244690  32.9696011  52.3729646  39.7290080
  32.7764821  52.3855893  38.7784799  34.0828434  51.3557099  39.9861758
  34.9396361  51.7789581  39.8210596  34.0311398  51.0601069  40.9078740
  33.9892092  50.1323071  39.0987023  34.6172919  50.1087367  37.8627995
  35.1025857  50.8515535  37.5843053  34.5313073  49.0016137  37.0307381
  34.9636499  49.0017261  36.2069032  33.8153725  47.9018607  37.4328299
  33.7547213  46.8126270  36.5989825  33.2913650  46.2069175  36.9505545
  33.1729929  47.8886581  38.6558353  32.6895070  47.1418087  38.9263003
  33.2641047  49.0147469  39.4879949  32.8339239  49.0118838  40.3127017
  31.7057867  51.9574167  40.4733883  31.6565932  52.0612020  41.7049473
  30.6666566  51.5053198  39.7827219  30.5469342  51.3084720  38.3277176
  31.2993151  50.7962445  37.9934258  30.4696379  52.1637776  37.8767602
  29.2715079  50.5229738  38.1849542  29.4483567  49.5697857  38.2282422
  28.8181402  50.7508401  37.3579115  28.4280529  50.9311405  39.3503266
  27.8091936  50.2247797  39.5921436  27.9535083  51.7560285  39.1609692
  29.4291965  51.1559395  40.4858555  29.1328726  51.8908146  41.0444106
  29.6139829  49.9072471  41.3319556  30.2633856  48.9456803  40.9169384
  29.0509256  49.9407651  42.5366535  28.5988735  50.6077177  42.8369486
  29.1491701  48.8332105  43.4737185  29.8118493  48.2028649  43.1509033
  29.5868376  49.3129956  44.8644393  29.5938535  48.5603769  45.4764123
  30.9770017  49.8918249  44.8070422  31.2472103  50.1921568  45.6889889
  31.6036805  49.2192017  44.4985997  30.9968306  50.6450850  44.1970553
  28.6709011  50.3036400  45.3415870  28.6565005  50.9583119  44.8162507
  27.8169382  48.1066521  43.5797466  26.7620655  48.5953443  43.1630399
  27.8925550  46.9201324  44.1769962  28.6056058  46.6020150  44.5376759
  26.7336373  46.0400726  44.2693686  26.5106548  45.7241675  43.3794738
  27.0840912  44.8102180  45.1288636  27.7799343  44.3051686  44.6798463
  27.6253114  45.2318728  46.4946300  27.8357571  44.4370998  47.0094314
  28.4263906  45.7640043  46.3661534  26.9503756  45.7546301  46.9534103
  25.8748184  43.9009910  45.2758586  26.1200119  43.1359013  45.8199429
  25.1578611  44.3954081  45.7035418  25.5934007  43.6047354  44.3955679
  25.5220544  46.7877190  44.8126997  24.3902836  46.5759773  44.3610647
  25.7366925  47.6849630  45.7761501  26.5126650  47.9093305  46.0728300
  24.6236460  48.3730969  46.4161448  23.9588963  47.7158660  46.6732697
  25.1069497  49.0727586  47.6935093  25.5631171  48.3399004  48.3598277
  25.8423872  49.8352169  47.4348224  23.9949090  49.6875057  48.3506611
  24.2978482  50.1247317  49.1498026  23.9435446  49.3908328  45.5075058
  22.8425737  49.8435658  45.8382714  24.5542611  49.7550993  44.3775411
  25.2830506  49.4026657  44.0874576  24.0232949  50.8078091  43.5202879
  23.4446562  51.3786789  44.0480758  25.1614688  51.6731528  42.9638443
  25.6852379  51.1337417  42.3513588  24.7702289  52.4193480  42.4825490
  26.1172326  52.2487136  43.9892102  25.6784011  52.9706615  44.4646302
  26.3782799  51.5494948  44.6088967  27.3741884  52.8015148  43.3370063
  27.2535690  53.5685576  42.3571853  28.4846961  52.4531547  43.7866773
  23.2137515  50.2872204  42.3390771  22.5099661  51.0764179  41.7040351
  23.3012242  49.0015494  42.0161042  23.6658372  48.4021399  42.5138306
  22.7723604  48.4844068  40.7588662  22.4489137  49.2231753  40.2190993
  23.8425077  47.7361647  39.9553243  24.1186929  46.9555156  40.4606475
  23.2519236  47.2714511  38.6277172  23.9353507  46.7996616  38.1263202
  22.5034227  46.6812539  38.8039210  22.9520442  48.0469290  38.1281250
  25.0634622  48.6278880  39.7275880  24.7929860  49.4058216  39.2144524
  25.4140637  48.9061741  40.5883931  26.1771330  47.9369048  38.9738370
  26.9154689  48.5560241  38.8647614  26.4665012  47.1613419  39.4785778
  25.8454235  47.6609894  38.1046371  21.5916846  47.5698485  41.0738962
  21.7884794  46.4693564  41.6111363  20.3617983  47.9536519  40.7349749
  19.9284513  49.2601605  40.2138686  20.0964671  49.3174812  39.2601857
  20.3645597  49.9790603  40.6975251  18.4620184  49.2637479  40.4856621
  17.9922856  49.7860107  39.8159468  18.2798925  49.6051826  41.3743907
  18.0325978  47.8348248  40.3982229  17.8266161  47.5929184  39.4817166
  17.2706618  47.6694207  40.9752949  19.2376777  47.0218969  40.8887946
  19.1149718  46.7772375  41.8192354  19.4466204  45.7752660  40.0437548
  19.9608113  45.8446655  38.9270630  19.0517213  44.6242585  40.5892099
  18.7961088  44.5241591  41.4049153  19.0295428  43.4069396  39.7857606
  19.9279450  43.2078883  39.4787539  18.5262469  42.2170519  40.6080540
  17.6462101  42.4225014  40.9608185  18.4065224  40.9683006  39.7259423
  18.0864524  40.2296003  40.2672390  17.7792865  41.1488605  39.0075550
  19.2790067  40.7564244  39.3590124  19.4553730  41.9464036  41.7824088
  19.1162686  41.1905831  42.2859221  20.3420518  41.7477846  41.4439001
  19.4863600  42.7341708  42.3477473  18.1513799  43.6558571  38.5690321
  16.9791779  44.0278676  38.6978794  18.7134107  43.4482242  37.3795637
  19.5137000  43.1511121  37.2748241  18.0287563  43.7049499  36.1297520
  18.0667446  42.9091808  35.5757436  17.0967816  43.9032288  36.3122666
  18.6110334  44.8572274  35.3416411  18.4112521  44.9226652  34.1212234
  19.3330941  45.7558056  35.9997106  19.4581854  45.7409450  36.8503576
  19.9918126  46.8671676  35.3345494  19.5588605  47.0304902  34.4815006
  19.8930326  48.1429940  36.1740387  20.2804455  47.9714711  37.0476044
  20.3890288  48.8480817  35.7293398  18.4692689  48.6374685  36.3862485
  18.0107496  48.8525764  35.4204806  17.8897856  47.8699699  36.8995388
  18.4930596  49.9082263  37.2327174  18.5776514  51.0061158  36.6204054
  18.4255718  49.7685740  38.4825365  21.4522341  46.5259667  35.0722955
  22.0615981  45.7167579  35.7750882  22.0083889  47.1468691  34.0385340
  21.5854314  47.6884406  33.5213481  23.4059581  46.9693508  33.6731947
  23.8633284  46.4834190  34.3769281  23.5541076  46.1742179  32.3560544
  23.0060531  46.5897020  31.6732615  25.0086094  46.1827914  31.8654854
  25.0657011  45.6767418  31.0392497  25.2837562  47.1002565  31.7105111
  25.5727341  45.7776522  32.5422176  23.0599873  44.7491434  32.5512690
  23.1595151  44.2636112  31.7178077  23.5868726  44.3251317  33.2470290
  22.1260093  44.7719827  32.8114814  24.0392953  48.3430251  33.5498388
  23.4242650  49.2778037  33.0255653  25.2647924  48.4650036  34.0410080
  25.6681609  47.8429936  34.4768617  26.0576661  49.6721011  33.8900248
  25.5206524  50.3612800  33.4675609  26.5396237  50.1945996  35.2483426
  27.0852778  49.5106385  35.6681387  27.0703652  50.9926136  35.1035561
  25.4254648  50.5519059  36.2156503  24.7005042  49.9150000  36.1184695
  25.7703217  50.5321815  37.1219607  24.8800989  51.9387067  35.9445898
  25.6796114  52.6718738  36.0528054  24.4833249  51.9819356  34.9303435
  23.7950461  52.2766408  36.8933084  23.5338579  51.5938231  37.5899243
  23.1479167  53.4383308  36.8685716  23.4340931  54.3860774  35.9812563
  24.1637625  54.2322606  35.2994375  22.9215709  55.2561509  35.9930531
  22.1886125  53.6373879  37.7681430  21.9733988  52.9148982  38.4412326
  21.6799286  54.5098785  37.7746083  27.2605986  49.3858762  33.0014108
  27.7832559  48.2677122  32.9720255  27.6922195  50.4118794  32.2779180
  27.2630200  51.1534452  32.1984070  28.9440890  50.3877688  31.5409327
  29.3295290  49.4981835  31.5865416  28.7243163  50.7467445  30.0689523
  28.4305878  51.6703944  30.0204091  29.5687774  50.6526343  29.6016935
  27.6868155  49.8958020  29.3179237  26.8073809  50.0573537  29.6958600
  27.6555159  50.2983612  27.8567778  26.9987450  49.7558489  27.3940139
  27.4151100  51.2366203  27.7932259  28.5336924  50.1553771  27.4717238
  27.9960709  48.4186340  29.4511814  27.3253180  47.9109008  28.9687981
  28.8742201  48.2456461  29.0782011  27.9819550  48.1766312  30.3902918
  29.9185654  51.3697531  32.1780799  29.5252149  52.4551691  32.6161990
  31.1875173  50.9815503  32.2330866  31.4666526  50.2178871  31.9508968
  32.2474378  51.8168807  32.7817921  31.9207305  52.7218246  32.9050962
  32.7143856  51.2713180  34.1361171  31.9492893  51.2187222  34.7305473
  33.0859440  50.3854606  34.0031134  33.7683579  52.1129451  34.8180666
  35.1205138  51.9094768  34.5648845  35.3795104  51.2452659  33.9674159
  36.0861763  52.6793789  35.1867514  36.9871952  52.5339963  35.0093087
  35.7001744  53.6642765  36.0705688  36.6485872  54.4410261  36.6983143
  36.2753926  54.9965834  37.2063221  34.3674368  53.8862049  36.3372845
  34.1129670  54.5505593  36.9354512  33.4106182  53.1093323  35.7139353
  32.5113294  53.2606702  35.8932602  33.3917454  51.8417652  31.7825114
  34.0153119  50.8072377  31.5328279  33.6743093  53.0131024  31.2207314
  33.2704442  53.7523553  31.3956803  34.7346813  53.1243302  30.2294290
  34.7073006  52.3482185  29.6483379  34.5558037  54.3708393  29.3640852
  33.6419149  54.4039817  29.0392855  34.7502604  55.1584075  29.8950927
  35.4925312  54.3691065  28.1520887  36.3549512  54.7196598  28.4237892
  35.5937271  53.4568913  27.8366890  34.9959711  55.2079715  26.9925118
  34.1191503  56.0570547  27.1462907  35.5586253  54.9669988  25.8144484
  36.1689449  54.3649454  25.7451111  35.3145559  55.4139855  25.1207640
  36.0950397  53.1526363  30.9153311  36.3323920  53.9577728  31.8220517
  36.9808536  52.2595304  30.4845394  36.8268590  51.7001438  29.8505320
  38.3187817  52.1398103  31.0526701  38.3276645  52.5609715  31.9269300
  38.6634436  50.6457150  31.2420067  38.5855773  50.2073895  30.3802634
  40.1081855  50.4677381  31.7411450  40.2896887  49.5204975  31.8490005
  40.7158987  50.8493747  31.0897441  40.2062199  50.9217579  32.5920747
  37.6580424  49.9980898  32.1962531  37.8590678  50.2807250  33.1021478
  36.7639909  50.2856015  31.9526676  37.6827767  48.5030944  32.1655475
  37.0235093  48.1644737  32.7914576  37.4724512  48.2026319  31.2677578
  38.5675438  48.1974802  32.4186252  39.3578723  52.8385025  30.1874696
  40.2690604  53.4880378  30.6988543  39.2404040  52.7045416  28.8725124
  38.6265006  52.2382368  28.4899781  40.1538722  53.3426779  27.9419362
  40.4093835  54.2137419  28.2833473  41.4203826  52.5049916  27.7456351
  42.0054118  52.9609605  27.1200441  41.8662605  52.4024351  28.6012150
  41.1723039  51.6355547  27.3943696  39.4112721  53.5340178  26.6329552
  38.2658853  53.0986957  26.4788558  40.0676919  54.1905289  25.6865835
  40.8011680  54.6243550  25.8032352  39.5565587  54.2136690  24.3293745
  38.7383481  54.7335618  24.2982628  40.5754627  54.8538792  23.3893652
  40.7983942  55.7384006  23.7186742  41.3711061  54.2993310  23.3590706
  40.0504794  54.9974844  21.9740153  39.4473292  56.0664845  21.6888934
  40.2547063  54.0375170  21.1837090  39.2429716  52.7924153  23.8917785
  40.1359969  51.9432603  23.8019637  37.9652206  52.5260802  23.6631063
  37.3183649  53.0739380  23.8057371  37.5570226  51.2434386  23.1358360
  36.6554457  51.3245204  22.7872406  38.1409108  51.0114840  22.3969181
  37.5692228  50.0866000  24.1124039  37.5245866  48.9326775  23.6735880
  37.6105130  50.3425297  25.4206883  37.6927655  51.1280468  25.7600738
  37.5152960  49.2706206  26.4073827  37.1443927  48.4825940  25.9820937
  38.8793599  48.8884808  27.0060877  39.2109004  49.6280656  27.5390054
  38.7265510  47.6817433  27.9155133  39.5941561  47.4527222  28.2841807
  38.1097889  47.9018274  28.6308220  38.3807081  46.9388312  27.3972370
  39.8954817  48.6009346  25.9124224  40.7415402  48.3636584  26.3222309
  39.5731382  47.8648819  25.3678453  40.0041496  49.3942302  25.3656003
  36.5608491  49.7049484  27.5107115  36.7588258  50.7546669  28.1340327
  35.5279668  48.9006307  27.7486045  35.3438848  48.2086852  27.2710449
  34.5955401  49.1037388  28.8454858  34.9126321  49.8224180  29.4147931
  33.1777045  49.4411474  28.3697268  32.8164733  48.6598424  27.9233127
  32.6372029  49.6401704  29.1506460  33.0308944  50.5877181  27.4330179
  32.5329573  51.8235792  27.7276904  32.2442209  52.0937951  28.5688995
  32.5269376  52.6129355  26.6075340  32.2576593  53.4278838  26.5717636
  33.0114520  51.8864460  25.5503568  33.1982569  52.2545365  24.2161611
  32.9798916  53.1073397  23.9155343  33.7117073  51.3137746  23.3677686
  33.8469003  51.5314071  22.4736406  34.0434379  50.0269337  23.8175076
  34.3930477  49.4091044  23.2173968  33.8646414  49.6636219  25.1446302
  34.0829782  48.8078688  25.4360213  33.3409659  50.6044603  26.0335250
  34.5109619  47.8295899  29.6701220  34.7623785  46.7286777  29.1771887
  34.1344173  47.9800909  30.9362771  34.1857849  48.7143013  31.3819063
  33.5865785  46.8566057  31.6770805  33.7982685  46.0310749  31.2132494
  34.1541199  46.7704840  33.0983006  33.8839809  45.9269281  33.4935213
  35.1222301  46.8162398  33.0524400  33.6865165  47.8250522  33.9110675
  34.0102270  47.7579035  34.6834945  32.0747351  47.0142725  31.7103169
  31.5495366  48.1228876  31.5576078  31.3735748  45.8912391  31.8452108
  31.7067996  45.1011090  31.7835291  29.9463247  45.9141910  32.1153542
  29.6539324  46.8380151  32.1569453  29.1212256  45.2120697  31.0021354
  28.1794835  45.3017782  31.2173009  29.3036036  45.6557942  30.1595146
  29.3988930  43.7517776  30.8081952  28.8510767  42.7710790  31.6083112
  29.2179338  41.5834125  31.1610304  28.9949388  40.7648251  31.5433665
  29.9612047  41.7546663  30.0821284  30.3235432  41.1274138  29.6191422
  30.0755556  43.1011562  29.8316536  30.5457926  43.4933737  29.1312797
  29.7103991  45.2963591  33.4842109  30.4023298  44.3529443  33.8811826
  28.7903863  45.8872884  34.2346740  28.2738887  46.5164536  33.9550752
  28.5636341  45.5200993  35.6271742  29.0651459  44.7149855  35.8338448
  29.0083790  46.6312005  36.6030313  28.4217196  47.3949060  36.4871584
  28.8851421  46.1449905  38.0320370  29.1679482  46.8540682  38.6308280
  27.9599703  45.9119570  38.2075293  29.4515392  45.3672410  38.1504008
  30.4452834  47.0741914  36.3177542  30.8452713  47.3790405  37.1479425
  30.9412732  46.3152257  35.9749260  30.5672622  48.1965042  35.3090311
  31.5058385  48.4123320  35.1905326  30.1844360  47.9059037  34.4663346
  30.0887095  48.9723757  35.6413167  27.0849850  45.2233649  35.8121598
  26.2321912  46.0259105  35.4200752  26.7836556  44.0825149  36.4248945
  27.3675843  43.5080328  36.6857365  25.4101414  43.6947574  36.7146391
  24.8388921  44.4763153  36.6742237  24.8985808  42.6694607  35.7003209
  23.9840694  42.4350411  35.9229982  24.9333663  43.0604134  34.8128604
  25.4620623  41.8812188  35.7366151  25.3582446  43.1327152  38.1278005
  26.3847580  43.0050950  38.8031436  24.1486137  42.7972870  38.5731341
  23.4252944  42.8977404  38.1189454  23.9345531  42.2200959  39.8921286
  24.7762585  41.8795884  40.2324940  23.3972691  43.2570081  40.8896219
  23.1291315  42.8067643  41.7052467  24.4846656  44.2729035  41.2402432
  24.1395927  44.9240469  41.8699780  25.2441918  43.8206466  41.6394018
  24.7786753  44.7339053  40.4379935  22.2667908  43.9318651  40.3290143
  21.9718168  44.4993525  40.8745483  22.9641755  41.0552788  39.7701836
  22.1468940  41.0018662  38.8467878  23.0652210  40.1126360  40.7067552
  23.6310039  40.1189945  41.3540437  22.1793045  38.9597941  40.6849947
  21.3294236  39.2208237  40.2965208  22.7621322  37.8251509  39.8305343
  23.0747681  38.1954209  38.9906177  23.5054966  37.4250953  40.3094351
  21.7630462  36.7124774  39.5073038  22.1744820  36.0863969  38.8918806
  21.5185502  36.2573969  40.3281902  20.4898586  37.2353176  38.8633780
  19.4905236  37.4874073  39.5432245  20.5236633  37.4140731  37.5532068
  21.2383045  37.2293255  37.1126999  19.8286459  37.7099146  37.1417670
  21.9207359  38.4845813  42.1068991  22.7751083  38.6112289  42.9881654
  20.7254232  37.9440764  42.3181995  20.1033443  37.9026716  41.7251560
  20.3528236  37.3619006  43.6005122  20.8859717  37.7622140  44.3053812
  18.8772979  37.6125869  43.9048250  18.3413922  37.2605345  43.1778365
  18.6463387  37.1638746  44.7340301  18.6139635  38.9963190  44.0430503
  17.7994696  39.1187344  44.2099131  20.6282521  35.8654153  43.5789293
  20.3651887  35.1887642  42.5804676  21.1602414  35.3491192  44.6831162
  21.3500479  35.7993694  45.3909596  21.4718595  33.9289529  44.7735812
  20.7538930  33.4158561  44.3706907  22.7747405  33.6096764  44.0214658
  22.7540411  34.0508825  43.1582956  23.5243043  33.9401596  44.5406227
  22.9926883  32.1460931  43.7828519  23.5484332  31.3423571  44.7620068
  23.7859248  31.7143419  45.5806728  23.7490208  29.9939375  44.5420999
  24.1223616  29.4631628  45.2083347  23.3988031  29.4358539  43.3309533
  23.5335386  28.5278533  43.1796582  22.8474754  30.2238255  42.3450179
  22.6091298  29.8495318  41.5280665  22.6463155  31.5742059  42.5725292
  22.2738944  32.1026893  41.9036669  21.5778025  33.5359470  46.2357766
  22.2999017  34.1830946  46.9997076  20.8431181  32.4905681  46.6265140
  20.3080977  32.0585683  46.1107521  20.8817703  31.9766158  47.9955594
  20.1726007  31.3226910  48.1002870  22.2134246  31.2651583  48.2676369
  22.8630308  31.5479990  47.6055433  22.5211843  31.5024164  49.1568374
  22.1014687  29.7554865  48.1980805  20.9688490  29.2318583  48.1798819
  23.1569795  29.0895316  48.1629393  20.6414240  33.0884143  49.0160758
  21.2456182  33.1177643  50.0913887  19.7647794  34.0299882  48.6698523
  19.4072037  34.0991582  47.8902792  19.3347723  35.0436665  49.6125018
  18.4349464  35.3206610  49.3798727  19.3045230  34.6509699  50.4981232
  20.1946429  36.2888382  49.6896322  19.8673077  37.1896728  50.4667227
  21.2787689  36.3702099  48.9271602  21.5467187  35.7350534  48.4117689
  22.1336144  37.5469232  48.8833558  21.7630895  38.2345978  49.4586235
  23.5481438  37.2161869  49.3734518  24.0914155  38.0191865  49.3326035
  23.4982735  36.8965556  50.2882019  23.9274284  36.5299172  48.8026891
  22.1842253  38.0889168  47.4583033  21.7240183  37.4519641  46.5095953
  22.7699904  39.2743256  47.3096892  23.0724510  39.7429606  47.9636714
  22.9583325  39.9036202  46.0078057  22.6277414  39.3079041  45.3174081
  22.1982060  41.2398574  45.8906355  22.4812588  41.8382066  46.5993953
  22.4829975  41.9077257  44.5470077  21.9937550  42.7442305  44.5006993
  23.4359762  42.0762354  44.4751950  22.1968006  41.3155188  43.8344550
  20.7096997  41.0046427  46.0223279  20.2480294  41.8555189  45.9461159
  20.4206155  40.4071772  45.3152535  20.5286016  40.6058001  46.8875314
  24.4495514  40.0948358  45.7902196  25.1658928  40.5494227  46.6926578
  24.9119480  39.7243726  44.6013116  24.4019984  39.4390988  43.9701766
  26.3112094  39.7530244  44.2169986  26.8399159  40.1355983  44.9342605
  26.8250474  38.3343689  43.9255501  26.3438560  37.9748783  43.1633052
  27.7741935  38.3761741  43.7284488  26.6332276  37.3933155  45.0805855
  25.4645083  36.6542917  45.2075233  24.7987317  36.7363773  44.5630441
  25.2819748  35.7968895  46.2593683  24.4939352  35.3085942  46.3343907
  26.2669354  35.6780874  47.2180886  26.0954265  34.8336347  48.2788649
  25.3505023  34.4494607  48.2233736  27.4369320  36.4033810  47.1100413
  28.1003343  36.3202888  47.7572314  27.6083659  37.2543215  46.0527151
  28.3955329  37.7440830  45.9844816  26.5001172  40.6001401  42.9655100
  25.6679389  40.5440236  42.0590486  27.5806198  41.3658509  42.8708155
  28.5765088  41.6785997  43.9034502  29.0358310  40.8727928  44.1861574
  28.1565524  42.1317142  44.6526463  29.5334884  42.6116732  43.1887462
  30.2933017  42.1189059  42.8423689  29.8289833  43.3178101  43.7846477
  28.7733122  43.2037098  42.0589056  29.3661861  43.4798675  41.3420601
  28.2143120  43.9393357  42.3581683  27.9056269  42.0298176  41.6067017
  27.1067827  42.3517945  41.1612482  28.6879505  41.1007014  40.6926926
  29.2817018  40.1127577  41.1295265  28.7038690  41.4492557  39.4063006
  28.2812616  42.1244009  39.0814086  29.4611135  40.6933427  38.4173404
  30.2359787  40.2947003  38.8420959  28.6174783  39.5713354  37.7985275
  28.0906677  39.1512432  38.4961772  28.0335638  39.9512871  37.1235130
  29.4416634  38.5973877  37.1966846  28.9694234  37.9891439  36.8615400
  29.9441955  41.6308946  37.3239177  29.2165010  42.5428473  36.9175075
  31.1659797  41.3959557  36.8496952  31.6747414  40.7681689  37.1447942
  31.7803163  42.1707206  35.7809021  31.2203226  42.9341969  35.5695207
  33.1689190  42.6784353  36.1693673  33.7336835  41.9183098  36.3806382
  33.5443189  43.1695081  35.4219026  33.1565918  43.5937544  37.3660602
  32.3388225  44.5101762  37.4597106  34.0808081  43.3653787  38.2799502
  34.1212268  43.8586723  38.9836012  34.6366897  42.7176373  38.1762165
  31.9647766  41.3388110  34.5180574  32.2202800  40.1311782  34.5763254
  31.9154012  42.0213835  33.3829847  31.5498890  42.7957316  33.3006024
  32.4849640  41.5082796  32.1516028  33.1050562  40.7892089  32.3494816
  31.7803532  41.1675074  31.5779907  33.2250684  42.6072579  31.4210657
  33.4785251  43.6729431  32.0007862  33.5898891  42.3623028  30.1601043
  33.3671764  41.6556990  29.7240513  34.4120612  43.2880127  29.3928390
  34.4346619  44.1466512  29.8447229  35.8448482  42.7696054  29.2788727
  36.0558243  42.2835005  30.0906147  35.8863207  42.1630686  28.5230029
  36.9415328  43.8105618  29.0799718  36.6967469  44.3960376  28.3467113
  37.0965810  44.6630626  30.3401732  37.7975588  45.3177298  30.1938722
  36.2561963  45.1126090  30.5217319  37.3319664  44.0862430  31.0839076
  38.2366785  43.1164696  28.7186138  38.9285596  43.7854000  28.5939880
  38.4828123  42.5148841  29.4378509  38.1082535  42.6168863  27.8979229
  33.8208627  43.4942497  28.0043554  33.1470741  42.6129486  27.4565822
  34.0655137  44.6843793  27.4524982  34.4628377  45.3234754  27.8688631
  33.6906864  45.0440734  26.0862275  33.4538633  44.2451126  25.5887655
  32.5025656  46.0270860  26.0466021  32.7761507  46.8515585  26.4794985
  32.1225864  46.3498598  24.6053024  31.3751558  46.9676091  24.6064911
  32.8851504  46.7521018  24.1602546  31.8714249  45.5280680  24.1539398
  31.2965534  45.4701175  26.7990526  30.8846375  44.7758572  26.2608927
  31.5982622  45.0973059  27.6423255  30.2384427  46.5133279  27.1029568
  29.5072235  46.0904797  27.5796097  30.6317011  47.2103124  27.6512399
  29.9174758  46.8878746  26.2681759  34.9107420  45.6830580  25.4407169
  35.4743857  46.6291667  25.9946574  35.3154317  45.1797550  24.2751435
  34.8995963  44.5609613  23.8471536  36.5275018  45.6467952  23.6093257
  36.8316418  46.4621937  24.0364724  37.6650915  44.6146954  23.6801609
  37.4207526  43.8374241  23.1539226  38.9595655  45.1964227  23.0995927
  39.6588437  44.5264848  23.1563667  38.8085059  45.4397273  22.1727028
  39.2100135  45.9806557  23.6120030  37.8742775  44.1649522  25.1191234
  38.5949837  43.5156948  25.1444307  38.1055497  44.9368244  25.6595784
  37.0546407  43.7642989  25.4469016  36.1833676  45.9697102  22.1633227
  35.6597440  45.1123148  21.4390814  36.4676540  47.2034574  21.7494313
  36.8053793  47.8192920  22.2447639  36.2150677  47.6081378  20.3733953
  35.3230029  47.3283668  20.1175077  36.2962697  49.1281122  20.2420437
  35.6357968  49.5282899  20.8299095  37.1851874  49.4175255  20.5005998
  36.0347687  49.6284166  18.8468613  36.8466452  49.5432593  18.3211895
  35.3221490  49.1039891  18.4488728  35.6149702  51.0824456  18.8321019
  34.8555122  51.2043455  19.4228606  36.3588192  51.6349035  19.1206691
  35.2264973  51.4992009  17.4938815  35.3219762  50.9315087  16.8539617
  34.7333611  52.6960379  17.1924918  34.5565270  53.6079168  18.1416476
  34.7668957  53.4268785  18.9562150  34.2365377  54.3798438  17.9422020
  34.4050239  52.9771008  15.9377056  34.5173348  52.3874383  15.3220756
  34.0844246  53.7499262  15.7391660  37.2127361  46.9459150  19.4291286
  38.4186858  46.9269501  19.6892721  36.7010726  46.3951516  18.3293986
  35.8577676  46.3581828  18.1658016  37.5199077  45.7921116  17.2777771
  38.4544623  46.0023458  17.4314431  37.3607117  44.2798469  17.2529381
  37.5083551  43.9301364  18.1450699  36.4646213  44.0601794  16.9535034
  38.3456167  43.6092195  16.3172421  39.2433522  44.3120992  15.8019548
  38.2239974  42.3854265  16.1011833  37.0864560  46.4318165  15.9619262
  36.2079259  45.9112667  15.2695659  37.7078124  47.5585875  15.6260986
  38.3749176  47.8892080  16.0553803  37.3009070  48.3415643  14.4796570
  37.9390877  49.0559862  14.3300554  37.2775230  47.7767700  13.6917061
  35.9285251  48.9530469  14.6755573  35.7344730  49.8068272  15.5449002
  34.9626478  48.5187623  13.8686423  35.0798266  47.9273002  13.2547630
  33.5954498  49.0113776  13.9507987  33.5809533  49.7974525  14.5192001
  33.1127413  49.4301989  12.5614276  33.1361371  48.6614947  11.9718586
  32.2062192  49.7708231  12.6298589  33.9800510  50.5188900  11.9521298
  34.9157654  50.9864709  12.6383861  33.7321723  50.9084273  10.7907553
  32.6591304  47.9790175  14.5648383  31.4384813  48.0987651  14.4365878
  33.2162231  46.9665921  15.2286475  34.0676317  46.8623483  15.2971060
  32.4642689  45.9237461  15.9098919  31.5222669  46.1543406  15.9244656
  32.6286238  44.5642503  15.2196017  33.5510191  44.2787852  15.3190885
  32.0446686  43.9250562  15.6567347  32.3036666  44.5383583  13.7438668
  31.3422561  44.5956515  13.6291348  32.7381209  45.2881332  13.3094465
  32.7856754  43.2604243  13.0784098  33.0194007  42.2641026  13.7988157
  32.9394435  43.2525700  11.8408992  32.9683858  45.8307199  17.3427165
  34.0125939  46.3918588  17.6858371  32.2274804  45.1022842  18.1799002
  31.4969808  44.7095569  17.9538546  32.5867776  44.8993375  19.5745447
  33.4198923  45.3613332  19.7612580  31.5120703  45.4518846  20.5094704
  30.6908671  44.9597103  20.3562886  31.8039309  45.3181045  21.4247639
  31.1946359  46.9330201  20.3424879  30.9287092  47.1035118  19.4248085
  30.0405624  47.3033351  21.2479442  29.8434391  48.2455830  21.1378337
  29.2663038  46.7712009  21.0048436  30.2919079  47.1217463  22.1679137
  32.4119238  47.7823963  20.6542942  32.1819992  48.7183986  20.5404328
  32.6846859  47.6176550  21.5708738  33.1291087  47.5416707  20.0469402
  32.7849409  43.4195537  19.8729105  32.0300758  42.5670766  19.3865604
  33.8068438  43.1362301  20.6774751  34.4203603  43.7042343  20.8783226
  34.0042549  41.8374586  21.3102030  33.4894455  41.1633306  20.8406406
  35.4809261  41.4320959  21.2880849  35.7442394  41.2962475  20.3649487
  36.0004519  42.1600030  21.6644455  35.8593385  40.1615611  22.0577331
  35.5371084  40.2415322  22.9690143  35.2168919  38.9267561  21.4467176
  35.4801666  38.1471778  21.9610504  34.2528773  39.0290150  21.4699758
  35.5181398  38.8355648  20.5291236  37.3725025  40.0043437  22.1132438
  37.5874866  39.1957140  22.6028977  37.7164624  39.9449395  21.2072368
  37.7525981  40.7758487  22.5611057  33.5120769  41.9141428  22.7483057
  33.8967033  42.8213715  23.4984200  32.6745671  40.9584572  23.1298765
  32.4081153  40.3248901  22.6129190  32.1137783  40.8803634  24.4688565
  32.2628576  41.7190295  24.9340924  30.6099503  40.6280783  24.3897128
  30.2091533  41.3678470  23.9072514  30.4717030  39.8097705  23.8872988
  29.8431032  40.4817458  25.6951454  30.2646213  39.7974359  26.2381127
  29.8727501  41.7823074  26.4674359  29.3795211  41.6687683  27.2954214
  30.7952335  42.0134215  26.6607039  29.4634609  42.4780450  25.9302008
  28.4245557  40.0552153  25.4168366  27.9515489  39.9667703  26.2589411
  27.9956137  40.7273980  24.8643395  28.4367297  39.2033723  24.9529300
  32.7905097  39.7623333  25.2495083  32.9609845  38.6574276  24.7336298
  33.1687565  40.0363686  26.4962910  33.1138049  40.8144619  26.8588267
  33.7241527  39.0121770  27.3726200  33.8189711  38.1822742  26.8796872
  35.0940004  39.3931687  27.9502824  34.9674093  40.1378398  28.5593231
  35.6577793  38.2177009  28.7460554  36.5228350  38.4674780  29.1073227
  35.0461564  38.0045297  29.4683936  35.7534785  37.4534931  28.1565597
  36.0756667  39.8322151  26.8590631  35.7011424  40.6010317  26.4008081
  36.9110301  40.0851589  27.2832933  36.3975400  38.7941152  25.8104244
  37.0232014  39.1733557  25.1734844  36.7918254  38.0210904  26.2431100
  35.5782648  38.5391286  25.3582120  32.7183053  38.7978804  28.4884932
  32.4883397  39.7016147  29.3039863  32.1273858  37.6032131  28.5048436
  32.2713843  37.0145551  27.8941005  31.1854941  37.1220120  29.5101155
  31.0464519  36.1737652  29.3589851  31.7886861  37.2654426  30.9065212
  32.1851870  38.1473211  30.9932757  31.0900341  37.1467606  31.5692798
  32.8788289  36.2245601  31.1693582  32.7550005  35.1015984  30.6575559
  33.8608088  36.5242984  31.8765988  29.8144519  37.7894741  29.4251288
  29.6789647  38.9396383  28.9958102  28.7805634  37.0366652  29.7878730
  28.8411041  36.2072156  30.0098484  27.4289308  37.5605397  29.8428894
  27.2618276  38.1092934  29.0603756  26.4174077  36.4198753  29.8624531
  25.5221313  36.7799717  29.7579933  26.6726957  35.4325040  28.7352332
  26.0181864  34.7174622  28.7673869  26.6060717  35.8826112  27.8786734
  27.5606325  35.0519051  28.8241759  26.5150933  35.7378092  31.1167518
  25.9626559  35.1055590  31.1432605  27.2657549  38.4277179  31.0850918
  28.1958799  38.6152629  31.8708801  26.0629446  38.9672975  31.2633732
  25.4122929  38.8830216  30.7068492  25.7283902  39.7660702  32.4348358
  26.5515051  40.0648609  32.8517146  24.9449243  41.0093373  32.0111271
  24.7295687  41.5308926  32.8004154  25.4913179  41.5347013  31.4055012
  24.1302890  40.7312357  31.5650925  24.9502784  38.9600595  33.4762175
  24.1799852  39.5343356  34.2490787  25.1401325  37.6343698  33.5002842
  25.6193970  37.2175989  32.9205511  24.5617713  36.7447627  34.5040847
  24.9560992  35.8641473  34.3999787  24.9004601  37.2377175  35.9122347
  25.8163591  37.5582196  35.9163984  24.2997056  37.9644891  36.1402852
  24.7785206  36.1865836  36.9905822  24.0993363  34.9999196  36.9230083
  23.6264228  34.6991439  36.1809634  24.2306903  34.3095159  38.1111109
  23.8851723  33.5412117  38.2849243  24.9999902  35.0519276  38.9690943
  25.4006734  34.7809280  40.2769632  25.1528278  33.9929241  40.7038537
  26.1767849  35.7164579  40.9049814  26.4592932  35.5611711  41.7779075
  26.5527748  36.9079730  40.2646812  27.0792250  37.5250400  40.7191925
  26.1485507  37.1805501  38.9694208  26.4051717  37.9696838  38.5484224
  25.3573714  36.2424498  38.3006920  23.0502178  36.5931836  34.3397435
  22.2672323  37.0968472  35.1564200  22.6344429  35.9142398  33.2848821
  23.1532814  35.6232847  32.6633246  21.2404204  35.5939143  33.0778195
  21.1424364  34.6379579  32.9542534  20.7281174  35.8590267  33.8585480
  20.6664694  36.3010966  31.8598448  21.1802080  37.3156402  31.3840299
  19.5524205  35.7550831  31.3763302  19.1239595  35.1074692  31.7465928
  18.9580367  36.2378571  30.1364370  19.6220201  36.2012565  29.4310240
  17.7929682  35.3401781  29.7366023  17.4067189  35.6718993  28.9113705
  18.1211237  34.4369198  29.6092906  17.1278401  35.3542545  30.4426084
  18.4895664  37.6803958  30.2691801  18.7270008  38.5080731  29.3831191
  17.8109981  38.0020413  31.3686701  17.6531906  37.4740089  32.0277631
  17.2711613  39.3483513  31.5112556  16.7268910  39.5532915  30.7340437
  16.3776430  39.4306772  32.7430694  15.6852476  38.7535352  32.6779130
  16.9172707  39.2787979  33.5351809  15.7091385  40.7697066  32.8835048
  16.3846028  41.4659649  32.8697378  15.0860010  40.8935039  32.1502109
  14.9437266  40.8852240  34.1730773  14.1416895  40.3411413  34.1240117
  15.5052745  40.5970493  34.9097987  14.5365771  42.3185478  34.4114370
  15.2874738  42.9024765  34.2209866  13.7835508  42.5392073  33.8401203
  14.1292542  42.5257078  35.8225453  13.8921324  43.3742511  35.9495119
  13.4396172  41.9992131  36.0193656  14.8071663  42.3301923  36.3658149
  18.3852540  40.3859534  31.5912089  18.2954282  41.4438794  30.9606911
  19.4376452  40.1073765  32.3718585  19.5264249  39.3927091  32.8412012
  20.5522874  41.0467939  32.4755916  20.2111512  41.9201204  32.7276013
  21.5452715  40.5943367  33.5454061  21.6703064  39.6346695  33.4719279
  22.3899828  41.0495731  33.4033508  21.0854088  40.8956831  34.9469487
  20.0058275  41.4456956  35.1691593  21.9128207  40.5239529  35.9135304
  21.7061335  40.6689544  36.7354702  22.6576411  40.1416987  35.7190019
  21.2741349  41.1841236  31.1443719  21.7278464  42.2777819  30.7836901
  21.4023080  40.0834272  30.4048802  21.0714599  39.3137366  30.5998802
  22.1522403  40.1289445  29.1582285  22.9792812  40.6127027  29.3082335
  22.5111172  38.7117261  28.7267979  21.7002309  38.1879425  28.6306723
  23.2499377  38.7096065  27.3929667  23.4682692  37.8005876  27.1367112
  22.6925075  39.1051384  26.7048817  24.0698800  39.2215646  27.4671800
  23.3504582  38.1139854  29.7169159  22.9501191  38.0863674  30.4549124
  21.3714324  40.8652126  28.0723605  21.9674622  41.5393319  27.2246043
  20.0414949  40.7633094  28.0881135  19.5914644  40.2326110  28.5928251
  19.2357917  41.5941660  27.2029550  19.5243140  41.4513536  26.2882455
  17.7649959  41.1956781  27.3020713  17.2448545  41.7587110  26.7058935
  17.6718208  40.2660129  27.0430849  17.4659499  41.3173474  28.2163120
  19.4224016  43.0734681  27.5295006  19.5668062  43.9010816  26.6250151
  19.4466652  43.4237808  28.8199262  19.3394284  42.8831778  29.4802797
  19.6661357  44.8168419  29.1989282  19.0225940  45.3764271  28.7361126
  19.4533464  44.9919902  30.6988111  19.6023935  45.9221332  30.9320277
  18.5430553  44.7377739  30.9196779  20.0799047  44.4259639  31.1742392
  21.0620566  45.2766039  28.8020936  21.2584749  46.4389292  28.4197313
  22.0376449  44.3725583  28.8929452  21.9318958  43.5771196  29.2021271
  23.4012909  44.6650487  28.4647492  23.7485043  45.4018010  28.9911605
  24.2859253  43.4399097  28.7200497  24.4028660  43.3479763  29.6780623
  23.8230223  42.6584989  28.3785777  25.6830533  43.4409648  28.0945483
  25.5966771  43.5041033  27.1304800  26.4812609  44.6339445  28.5693464
  27.3600574  44.6095065  28.1587696  26.0187173  45.4466608  28.3118361
  26.5666921  44.5930930  29.5349611  26.4171562  42.1408505  28.4188704
  27.2976135  42.1661344  28.0130877  26.4984302  42.0565835  29.3816905
  25.9092378  41.3949908  28.0626089  23.4494991  45.0702490  26.9960179
  24.0771409  46.0732321  26.6348521  22.8106812  44.2884189  26.1236949
  22.3880426  43.5659841  26.3226160  22.7962555  44.6395163  24.7083852
  23.7110844  44.7119812  24.3937538  22.1103621  43.5370662  23.9092726
  21.2288852  43.3898874  24.2851288  22.0245448  43.8342465  22.9894437
  22.8349636  42.1836190  23.8893414  22.9294903  41.8657230  24.8013594
  22.0178470  41.1571318  23.1219161  22.4929913  40.3114401  23.1225862
  21.1557522  41.0531884  23.5551485  21.8963036  41.4681912  22.2117319
  24.2284155  42.2967304  23.2904269  24.6473808  41.4220082  23.2975111
  24.1543046  42.6208073  22.3794034  24.7505828  42.9191451  23.8217435
  22.1128357  45.9860306  24.4770377  22.5309675  46.7633290  23.6113831
  21.0595042  46.2812931  25.2388689  20.7318228  45.7723858  25.8496080
  20.3680508  47.5567505  25.0670560  20.1722872  47.6829354  24.1246575
  19.0408883  47.5475901  25.8249701  18.5983554  48.4011523  25.6971679
  18.4843359  46.8310136  25.4786703  19.2173499  47.4026323  26.7674692
  21.2364746  48.7240438  25.5229894  21.2107345  49.8008758  24.9113553
  22.0096986  48.5351236  26.5985260  22.0319375  47.8140314  27.0680688
  22.9068178  49.5895892  27.0620405  22.4118199  50.4226980  27.1167734
  23.4429802  49.2647343  28.4593465  23.8356724  48.3787973  28.4399931
  24.1241263  49.9172916  28.6870084  22.4011691  49.2818325  29.5732088
  21.6302185  48.7665798  29.2880003  22.7873460  48.8823745  30.3684287
  21.9163002  50.6817671  29.9413600  22.4451155  51.6860971  29.4085594
  20.9958870  50.7741905  30.7796962  24.0620987  49.7916387  26.0898358
  24.5100969  50.9231343  25.8787424  24.5550663  48.7083699  25.4837618
  24.3035219  47.9006173  25.6407591  25.6011749  48.8322740  24.4691814
  26.3549207  49.3058334  24.8558968  26.0995557  47.4385864  24.0321867
  25.3292887  46.8768444  23.8509363  26.9385486  47.5415583  22.7620365
  27.2394946  46.6544215  22.5099059  26.3953833  47.9215220  22.0548428
  27.7037629  48.1135130  22.9352764  26.9217184  46.7963816  25.1585870
  27.7213628  47.3276835  25.2959812  26.3869641  46.8010866  25.9693970
  27.3606489  45.3716327  24.9143588  27.8696975  45.0624871  25.6806782
  26.5757026  44.8154486  24.7927710  27.9130763  45.3440414  24.1182755
  25.0953196  49.6555322  23.2857084  25.7673156  50.5822331  22.8159159
  23.8994004  49.3374270  22.7848718  23.3925322  48.7047374  23.0731919
  23.3630806  50.0945557  21.6563970  23.9957601  50.0582905  20.9218472
  22.0481180  49.4805530  21.1789768  22.2105169  48.5600439  20.9196342
  21.4088907  49.5083374  21.9075936  21.4211008  50.1973915  19.9808195
  20.5766409  49.7706138  19.7658930  21.2724969  51.1278091  20.2131340
  22.2966267  50.1590657  18.7363065  23.0460319  49.1761308  18.5610328
  22.2356673  51.1150118  17.9338473  23.1583651  51.5548554  22.0319054
  23.4354294  52.4573121  21.2330367  22.6793530  51.8077729  23.2467157
  22.5043220  51.2108087  23.8411499  22.4091818  53.1776650  23.6655951
  21.8707627  53.6160335  22.9886727  21.6168429  53.1760841  24.9747871
  20.7736906  52.7200850  24.8261433  22.1301350  52.7041381  25.6482194
  21.3021345  54.5679515  25.5218052  22.1079922  55.1067220  25.5113798
  20.6141305  54.9791741  24.9752839  20.7927458  54.4926551  26.9566402
  19.8837028  53.8922976  26.9884627  21.5527693  54.0339436  27.5888119
  20.4913500  55.8988495  27.4630935  21.4006934  56.4997015  27.4320866
  19.7307164  56.3584593  26.8318278  19.9999038  55.8258732  28.8470003
  20.7044242  55.4010733  29.4324556  19.8008492  56.7581116  29.1826173
  19.1576763  55.2702640  28.8761259  23.7021152  53.9713606  23.8263670
  23.8050069  55.1089780  23.3536537  24.6999059  53.3911731  24.4973634
  24.7146662  52.5646491  24.7319719  25.8837840  54.1483202  24.8957929
  25.6414782  55.0847174  24.9652633  26.3703592  53.6905871  26.2766835
  26.5531896  52.7385566  26.2422741  27.1844325  54.1718002  26.4955388
  25.3781652  53.9291793  27.3985795  25.0988160  54.8576732  27.3847173
  24.6123211  53.3469569  27.2759378  25.9816236  53.6366497  28.7539530
  27.1229834  54.0066985  29.0263621  25.2258019  52.9627846  29.6064520
  24.4326043  52.7189401  29.3781968  25.5250440  52.7711689  30.3898003
  27.0483941  54.0456457  23.9185692  27.8825365  54.9555191  23.8848070
  27.1391871  52.9791597  23.1365408  26.5611957  52.3420916  23.1263374
  28.2436319  52.7774598  22.2059659  28.8811568  53.4998488  22.3239705
  28.9833464  51.4533345  22.5059984  28.3686827  50.7179201  22.3555945
  30.1773531  51.2830624  21.5626186  30.6247535  50.4478177  21.7682525
  29.8564628  51.2698364  20.6466195  30.7874827  52.0259413  21.6893219
  29.4273802  51.4220186  23.9762509  30.0436114  52.1553055  24.1298198
  28.6440640  51.5312727  24.5380981  30.1219000  50.1394252  24.3989356
  30.3655004  50.2066586  25.3351699  29.5147798  49.3944919  24.2674655
  30.9176275  50.0188526  23.8577730  27.7615263  52.8245980  20.7573047
  28.3293851  53.5333562  19.9246660  26.7111023  52.0800911  20.4406141
  26.3085089  51.5404689  20.9761815  26.1537600  52.1378084  19.1052028
  25.2406121  51.8117116  19.1316190  26.1330429  53.0628354  18.8130558
  26.9003820  51.3400650  18.0633712  26.7469526  51.6133983  16.8677926
  27.7090529  50.3659439  18.4788859  27.8919982  50.2288913  19.3075321
  28.3747983  49.4250090  17.5941313  28.1808644  49.6548896  16.6715531
  29.8961027  49.4335486  17.7876721  30.0795501  49.2635324  18.7244024
  30.2701804  48.7147472  17.2544936  30.6465017  50.7099930  17.4079710
  30.2352486  51.4657579  17.8551804  32.0789320  50.5967963  17.8919782
  32.5577602  51.4055942  17.6518727  32.0780205  50.4854413  18.8561245
  32.4948164  49.8284164  17.4703307  30.6117894  50.9669800  15.9100679
  31.0993257  51.7843999  15.7191542  31.0258262  50.2200116  15.4515947
  29.6888573  51.0594518  15.6274136  27.8553375  48.0183829  17.8610572
  27.4317604  47.7141426  18.9813416  27.8740821  47.1425379  16.8624415
  28.3367298  47.3583256  15.4797840  29.2861129  47.5569631  15.4694969
  27.8217649  48.0647909  15.0583356  28.0693353  46.0379754  14.8021428
  28.8742298  45.4963592  14.7851216  27.7373661  46.1795156  13.9018185
  27.0218773  45.3465512  15.6169730  27.1156976  44.3833485  15.5546817
  26.1331525  45.6271154  15.3474383  27.3018850  45.8059487  17.0486908
  26.4713940  45.8528342  17.5467986  28.2682939  44.8599754  17.7433924
  29.4705435  44.8592970  17.4751660  27.7213366  44.0453725  18.6398749
  26.9114154  44.1101700  18.9221424  28.4714057  42.9431081  19.2368258
  29.3907522  43.2147514  19.3833761  27.8656288  42.5101812  20.5794884
  26.9705186  42.1709658  20.4257531  28.6939462  41.3877386  21.1917382
  28.2972682  41.1286830  22.0380778  28.7003946  40.6320969  20.5833238
  29.5995552  41.7059808  21.3347076  27.7625165  43.6737403  21.5560881
  27.3763093  43.3550953  22.3868886  28.6511199  44.0284829  21.7187433
  27.1971954  44.3602591  21.1701840  28.4573217  41.7854575  18.2483058
  27.3915536  41.2485050  17.9340155  29.6348658  41.3884764  17.7648010
  30.3946134  41.7236898  17.9892039  29.7181115  40.3132166  16.7799820
  28.8274902  40.1433463  16.4348489  30.6003822  40.7365215  15.5988142
  30.7117163  39.9862520  14.9938824  29.9414265  41.8816268  14.8319810
  30.5019894  42.1458408  14.0864588  29.0776641  41.6000113  14.4932226
  29.8170869  42.6438381  15.4185213  31.8813103  41.1594062  16.0783731
  32.3672059  41.3914597  15.4325731  30.2464851  39.0080511  17.3449760
  29.9155367  37.9458416  16.8100769  31.0504702  39.0577580  18.4054830
  31.3028063  39.7871284  18.7837161  31.5861185  37.8570323  19.0307548
  31.0233741  37.0992663  18.8061229  33.0178725  37.5477042  18.5696836
  33.5868398  38.2977858  18.8028142  33.3256059  36.7498099  19.0272542
  33.1611655  37.3068607  17.0726998  32.5353906  36.6186959  16.7984209
  32.9818954  38.1334445  16.5970156  34.5735699  36.8427033  16.7101909
  34.8525680  36.1554216  17.3356457  34.5702944  36.4901970  15.8069470
  35.5446123  37.9337928  16.7699281  35.2609764  38.7100911  17.0056518
  36.8407114  37.8067006  16.4849446  37.3441482  36.6293071  16.1282697
  36.8320772  35.9399457  16.0752305  38.1818568  36.5572604  15.9480625
  37.6384198  38.8630099  16.5584910  37.3193737  39.6269611  16.7914462
  38.4756812  38.7821110  16.3801381  31.5739973  38.0291300  20.5407380
  31.7134304  39.1395263  21.0556394  31.4404092  36.9099137  21.2416533
  31.3210752  36.1355480  20.8883176  31.4846022  36.8855596  22.6918587
  31.9344903  37.6807997  23.0174764  30.0760390  36.8465401  23.2832876
  30.1405880  36.8300970  24.2503739  29.5918898  37.6370971  22.9956747
  29.6235704  36.0481483  22.9678880  32.2870825  35.6637958  23.1224998
  32.2599082  34.6241557  22.4595933  33.0171001  35.8134543  24.2195238
  33.0789844  36.5585828  24.6448505  33.7969550  34.7443230  24.8356842
  33.6249855  33.9071197  24.3767647  35.3085353  35.0432783  24.7733223
  35.4716047  35.9143266  25.1684037  36.1026471  34.0087049  25.5778454
  37.0478142  34.2207472  25.5205207  35.8127062  34.0371702  26.5023383
  35.9384306  33.1272450  25.2066656  35.8093303  35.0860860  23.3307005
  36.7610665  35.2751722  23.3314693  35.6441232  34.2248465  22.9145190
  35.3335651  35.7823032  22.8519864  33.3428808  34.6119700  26.2859742
  33.2525269  35.6155792  26.9992980  33.0683307  33.3832362  26.7202144
  33.0277811  32.6932128  26.2082490  32.8044661  33.0806399  28.1252218
  32.5848241  33.8986792  28.5977502  31.6333102  32.1047660  28.2679418
  31.8198764  31.3105983  27.7428478  31.5355784  31.8658809  29.2028495
  30.4178451  32.6784648  27.8122353  30.2404621  33.3671567  28.2593579
  34.0585426  32.4793347  28.7502004  34.6582752  31.5629206  28.1752830
  34.4453590  32.9777941  29.9325288  33.9748486  33.5134057  30.4124508
  35.7420016  32.6339701  30.5107578  36.3445855  32.4089663  29.7852622
  36.3447539  33.8468345  31.2404281  37.1813026  33.5844736  31.6554630
  36.6386231  34.9803007  30.2535987  37.0185070  35.7388278  30.7241218
  37.2687836  34.6792863  29.5812060  35.8191261  35.2588356  29.8163458
  35.4456755  34.3174955  32.2522899  34.7163618  34.5464029  31.9051042
  35.7084921  31.4333987  31.4546600  36.7790015  30.9379196  31.8157750
  34.5318126  30.9584039  31.8596901  33.7961326  31.4021633  31.8161523
  34.3728882  29.6189532  32.4263858  34.8111761  28.9859061  31.8359511
  35.0395645  29.4818530  33.8125850  35.0522492  28.5427053  34.0537214
  35.9502739  29.8086514  33.7474059  34.3768596  30.2257577  34.9444405
  34.6431876  31.5464554  35.2335875  35.1559381  32.0624450  34.7735510
  33.9607417  31.9095083  36.3081699  33.9563887  32.7579262  36.6891241
  33.2868002  30.8615914  36.7467390  33.5431712  29.7913684  35.9231660
  33.1904710  28.9354153  36.0068678  32.8795683  29.3018125  32.3998665
  32.0908940  30.0617546  31.8371225  32.4977471  28.1623210  32.9813403
  32.9752302  27.7252867  33.5474746  31.2018942  27.5456853  32.6971088
  30.9349599  27.8102889  31.8024279  31.3402533  26.0112425  32.6926201
  30.5456676  25.6307078  32.2866042  32.1205067  25.7727027  32.1686122
  31.4981576  25.3892780  34.0525952  32.7331002  25.3677856  34.6824617
  33.4702630  25.7510180  34.2656524  32.8785643  24.7875722  35.9297422
  33.7098198  24.7828854  36.3461881  31.7893491  24.2190626  36.5603515
  31.8886415  23.8292884  37.3989474  30.5583520  24.2267136  35.9435560
  29.8224471  23.8427468  36.3652518  30.4168141  24.8060814  34.6953425
  29.5828903  24.8108794  34.2847161  30.0731116  27.9570523  33.6406977
  28.9359879  27.5249367  33.4337926  30.3288690  28.7776538  34.6526470
  31.0925180  29.1383460  34.8135707  29.2785222  29.1304838  35.5967172
  28.7798815  28.3308273  35.8287667  29.8739210  29.7053301  36.8790627
  30.5053193  30.4038926  36.6434875  29.1576827  30.0778752  37.4159416
  30.5969974  28.6986966  37.7173249  31.6082399  29.0429920  38.5866253
  32.0568759  27.9537055  39.1873987  32.7389096  27.9235511  39.8189220
  31.3742960  26.9168350  38.7372005  31.4863808  26.0997565  38.9805105
  30.4551074  27.3562711  37.8160826  29.8480869  26.8304957  37.3481442
  28.3018550  30.1420877  34.9922839  28.5887972  30.8211202  34.0077003
  27.1488256  30.2825568  35.6517366  26.9829115  29.9435160  36.4248140
  26.0430196  31.0518594  35.0836243  25.8609220  30.7226578  34.1891883
  24.7862232  30.8493226  35.9206278  25.0426491  30.6696916  36.8387653
  24.2435670  31.6515352  35.8767752  23.9517692  29.6914113  35.4330080
  23.2483733  29.8596972  34.4117048  24.0162487  28.6123710  36.0574632
  26.3571850  32.5367229  34.9772778  25.7667001  33.2277900  34.1405444
  27.2636571  33.0593855  35.8088781  27.6618161  32.6406346  36.4458601
  27.6351744  34.4573044  35.6507589  26.8243588  34.9754780  35.5247822
  28.3205396  34.9805900  36.9189784  28.6299078  35.8852032  36.7567428
  27.6781372  34.9794005  37.6454904  29.5221796  34.1490847  37.3583246
  29.5063810  32.9062195  37.2865164  30.5020003  34.7667235  37.8294454
  28.5183124  34.6911944  34.4284174  28.8145760  35.8481677  34.1130719
  28.9224171  33.6292728  33.7280954  28.7462477  32.8165334  33.9474125
  29.7118675  33.7434905  32.5061537  29.9593417  34.6730677  32.3834521
  31.0032453  32.9277519  32.6282437  30.7812207  31.9847376  32.5915535
  31.5867367  33.1558992  31.8875660  31.7794947  33.1723544  33.9216379
  31.1835703  33.0513585  34.6779362  32.5175485  32.5461575  33.9743909
  32.3431385  34.5694266  33.9875447  33.3073904  34.5285907  33.8913951
  31.9585117  35.1027609  33.2736435  32.0406746  35.2206666  35.2562712
  31.7749243  34.7258078  35.9080247  32.1468293  36.5258822  35.4727903
  32.5688582  37.3327675  34.5141925  32.7678567  37.0134876  33.7406875
  32.6383605  38.1769779  34.6620615  31.8403941  37.0252312  36.6609788
  31.5697379  36.5046639  37.2896670  31.9152707  37.8702815  36.8039071
  28.9820977  33.2899158  31.2537017  29.2545066  33.8305182  30.1769504
  28.0927773  32.3018502  31.3576520  27.8832496  31.9209259  32.0998486
  27.3801715  31.7664215  30.2012381  27.7065982  32.2237165  29.4101421
  27.6549675  30.2563168  30.0017785  27.1765304  29.9561723  29.2123406
  29.1321542  29.9955242  29.7704184  29.2699605  29.0429822  29.6499070
  29.4165849  30.4752079  28.9763071  29.6322827  30.3065608  30.5415849
  27.1412924  29.4354514  31.1951028  27.3292201  28.4977610  31.0373184
  27.5939584  29.7334125  32.0002597  26.1848069  29.5721372  31.2842176
  25.8827441  32.0013273  30.2669292  25.1923332  31.7773329  29.2592500
  25.3395328  32.4069833  31.4139871  25.7749949  32.5344593  32.1437197
  23.9163460  32.6717107  31.5078207  23.4157122  31.9041792  31.1889927
  23.6726504  32.8443847  32.4308278  23.5519218  33.8803493  30.6687881
  24.0017543  35.0009116  30.9565445  22.7423993  33.6825546  29.6388155
  22.3355389  32.9417221  29.4813806  22.4658295  34.7207707  28.6647875
  21.5051419  34.8160190  28.5647826  22.8220528  35.5632870  28.9864213
  23.0588628  34.4462362  27.3009373  22.8181618  35.2219334  26.3674466
  23.8335356  33.3730713  27.1637174  24.0349076  32.8325184  27.8011230
  24.4196119  33.0224379  25.8706456  25.0004751  33.7444620  25.5855047
  25.2856882  31.7540306  26.0216942  24.9027634  31.1979771  26.7181503
  25.3254315  30.9328867  24.7467620  25.8791629  30.1501947  24.8924049
  24.4220085  30.6609467  24.5185089  25.6982043  31.4745245  24.0345858
  26.7037390  32.1449355  26.4652439  27.2383697  31.3411111  26.5571693
  27.0945918  32.7278682  25.7949347  26.6517606  32.6075059  27.3159624
  23.3337821  32.8539737  24.8142913  23.5191013  33.2324966  23.6508760
  22.1808254  32.2985423  25.1980566  22.0019411  32.0288972  25.9951343
  21.1038683  32.1105083  24.2299989  21.4502946  31.6266359  23.4640013
  19.9789326  31.2768758  24.8444869  19.7002520  31.6879899  25.6774751
  19.2337221  31.2463335  24.2239916  20.4021394  29.8488260  25.1426339
  21.5112055  29.4488245  24.7241879  19.6213679  29.1273980  25.8014287
  20.5637593  33.4502233  23.7354294  20.1759255  33.5745421  22.5706291
  20.5031725  34.4510295  24.6172764  20.6768606  34.3701570  25.4557256
  20.1261312  35.8038771  24.2128592  19.2468649  35.7780616  23.8031639
  20.0506368  36.7273367  25.4450435  20.8483404  36.6001218  25.9824776
  19.9877066  38.1995979  25.0376803  19.9418067  38.7467332  25.8373322
  20.7846075  38.4207801  24.5303883  19.1978485  38.3413420  24.4922247
  18.8450457  36.3700030  26.3055623  18.8192721  36.9623241  27.0728539
  18.0390087  36.4762739  25.7777670  18.9299293  35.4503941  26.6002202
  21.1119282  36.3356725  23.1803559  20.7204348  36.9432287  22.1763015
  22.4075019  36.1371453  23.4305534  22.7136475  35.7310059  24.1244257
  23.4355593  36.6119937  22.5138824  23.3264023  37.5670137  22.3807975
  24.8230062  36.3698628  23.1098067  24.9054274  35.4237804  23.3098491
  25.4849293  36.6165895  22.4454591  25.1572257  37.1360081  24.3919489
  24.4731590  36.9535904  25.0548807  26.4808389  36.6577885  24.9461069
  26.6801498  37.1510200  25.7568059  26.4160941  35.7101198  25.1424540
  27.1740909  36.8134596  24.2849767  25.1925647  38.6442743  24.1607498
  25.4076851  39.0856984  24.9970428  25.8702993  38.8449143  23.4964565
  24.3226084  38.9351302  23.8461837  23.3075443  35.9293815  21.1652272
  23.3516429  36.5823750  20.1191135  23.1204920  34.6118656  21.1735532
  23.0504405  34.1272980  21.8806431  23.0205711  33.8798324  19.9193135
  23.8107487  34.0547806  19.3849068  22.9625907  32.3807406  20.2023315
  23.7724280  32.1165422  20.6663269  22.1881248  32.1948017  20.7560087
  22.8507270  31.5488834  18.9529440  22.0822040  31.8451870  18.4407784
  23.6611591  31.6505973  18.4297394  22.6724355  30.0820175  19.2631787
  21.8558245  29.9642171  19.7738915  22.6183343  29.5866554  18.4309489
  23.7764641  29.5335470  20.0437951  24.5382914  29.4592799  19.6513355
  23.7028985  29.1408266  21.3119890  22.5654625  29.2206184  21.9902329
  21.8601570  29.5354699  21.6115158  22.5343455  28.9621613  22.8094841
  24.7822110  28.6476664  21.9063210  25.5232139  28.5922030  21.4745705
  24.7422907  28.3937421  22.7272916  21.8013964  34.3212745  19.1209404
  21.8655532  34.4519286  17.8888396  20.6682917  34.5271221  19.7996197
  20.5744560  34.4156022  20.6472754  19.4673753  34.9756717  19.1091452
  19.2657421  34.3545600  18.3927875  18.2809296  34.9848719  20.0738483
  17.4906251  35.2856588  19.5988641  18.1429823  34.0857903  20.4111446
  18.4763633  35.5879515  20.8083281  19.6654273  36.3521407  18.4945573
  19.0289714  36.6785860  17.4851142  20.5538038  37.1610459  19.0709640
  20.9934330  36.9602695  19.7824196  20.8689839  38.4798785  18.5438292
  20.0591272  38.8743599  18.1835273  21.3683466  39.3827616  19.6724284
  21.5752210  40.2574413  19.3086066  20.6736188  39.4587906  20.3456362
  22.1648619  38.9888363  20.0618283  21.9026457  38.4426438  17.4267872
  22.2782048  39.5053753  16.9260456  22.3620516  37.2588515  17.0203195
  22.1107417  36.5050403  17.3480542  23.3468545  37.1398106  15.9647473
  23.2264916  36.2874325  15.5180949  23.1967543  37.8435759  15.3137071
  24.7825097  37.2260943  16.4197859  25.6720764  37.4215854  15.5776118
  25.0386183  37.1111627  17.7205877  24.4326422  37.0332576  18.3269421
  26.3978758  37.1064393  18.2442344  26.9498181  37.6997341  17.7118520
  26.4252448  37.5961723  19.7064544  25.8714724  37.0055727  20.2415547
  27.8375557  37.5365727  20.2683626  27.8249870  37.8500502  21.1863952
  28.1528073  36.6204485  20.2345279  28.4130956  38.1045228  19.7328503
  25.8468424  39.0008852  19.8192439  25.8777060  39.2812140  20.7475139
  26.3758936  39.6048634  19.2740998  24.9289284  38.9900241  19.5066708
  26.9627919  35.6996456  18.1376732  26.2921176  34.7130428  18.4679700
  28.2030264  35.6018947  17.6789105  28.6616694  36.2630448  17.3751521
  28.9070136  34.3274000  17.6517988  28.2773323  33.6115358  17.4730001
  29.9686876  34.3232809  16.5583083  30.4223339  33.4656171  16.5618943
  29.5387294  34.4669911  15.7013367  30.6050354  35.0352004  16.7333656
  29.5332372  34.0884995  19.0189907  30.4097299  34.8489122  19.4489417
  29.0743670  33.0562855  19.7170491  28.5090397  32.4800283  19.4188584
  29.5083292  32.8113381  21.0888226  29.8725163  33.6317964  21.4564568
  28.3380001  32.3723280  21.9723972  28.6696943  32.1217398  22.8482176
  27.3467146  33.5245560  22.1414438  26.6054705  33.2437659  22.7011689
  27.7876844  34.2820387  22.5569994  27.0030262  33.7952570  21.2762356
  27.6618725  31.2553552  21.3808025  27.3664384  31.4671633  20.6230426
  30.6075316  31.7568909  21.1051967  30.5625429  30.7846077  20.3491522
  31.5994956  31.9681392  21.9764491  31.5888308  32.5980203  22.5621368
  32.8063820  31.1582006  22.0292745  32.6838973  30.3573512  21.4969817
  34.0262308  31.9215482  21.4898902  34.0240017  32.8104319  21.8774026
  34.8269910  31.4504883  21.7687857  34.1012258  32.0851546  19.9873681
  33.2986495  33.0061614  19.3283957  32.6851816  33.5079443  19.8140416
  33.3851244  33.1770245  17.9533433  32.8359699  33.7894008  17.5193922
  34.2904122  32.4325878  17.2425368  34.3928521  32.5937799  15.8834091
  33.8470990  33.1753476  15.6213773  35.1091707  31.5257211  17.8796188
  35.7214122  31.0241224  17.3918605  35.0128565  31.3619949  19.2453839
  35.5664843  30.7489748  19.6719476  33.1303729  30.7467041  23.4579406
  32.9452253  31.5182524  24.4082008  33.6909570  29.5462078  23.5920299
  33.7263028  28.9559933  22.9670687  34.3095763  29.1200858  24.8450451
  34.8274154  29.8539331  25.2110680  33.2631594  28.7071315  25.8866604
  33.7183572  28.4322911  26.6986005  32.6841952  29.4631986  26.0705299
  32.7421862  27.9683182  25.5333858  35.2582513  27.9665233  24.5514972
  35.1963779  27.3490141  23.4896728  36.1376714  27.6749615  25.5067130
  36.2235449  28.0985569  26.2493769  37.0511279  26.5574266  25.3281245
  37.5272944  26.6572874  24.4889688  38.0662304  26.5097735  26.4606558
  38.7928879  25.9168762  26.2166341  38.4019748  27.4047534  26.6292760
  37.4347690  26.0231619  27.6185015  37.9835647  25.9915211  28.2534009
  36.2665070  25.2473565  25.2920635  35.1561028  25.1635310  25.8229314
  36.8279420  24.1983333  24.6804705  38.0371051  24.1509847  23.8384321
  38.8339508  24.1227394  24.3897334  38.0533269  24.9018100  23.2251196
  37.8746492  22.8701765  23.0895847  38.7391238  22.4838657  22.8792001
  37.3550146  23.0086094  22.2823250  37.1280371  21.9597962  24.0183576
  37.7305646  21.5479997  24.6580101  36.6362236  21.2863881  23.5227247
  36.1505883  22.8893178  24.7464958  35.3143960  22.9194537  24.2551301
  35.8781264  22.4364007  26.1722576  34.8224900  21.8479602  26.4445637
  36.8067513  22.6938732  27.0952060  37.5630359  23.0713688  26.9408990
  36.5811348  22.3332626  28.4918815  36.4188915  21.3774981  28.5500313
  37.8228136  22.6556322  29.3239474  38.0026135  23.6066563  29.2646589
  37.6569857  22.4070621  30.2468916  38.9520971  21.9421064  28.8503126
  38.8097138  21.1155408  28.8963689  35.3601520  23.0538988  29.0501488
  34.4738624  22.4307667  29.6452817  35.3033049  24.3765249  28.8747389
  35.9139216  24.8493339  28.4980308  34.1445447  25.1354698  29.3353650
  34.0867678  25.0738031  30.3013568  34.3092721  26.6079588  28.9629581
  34.4991647  26.6763709  28.0141106  33.0393528  27.4046396  29.2528163
  33.1685220  28.3348209  29.0090173  32.2981832  27.0440006  28.7427240
  32.8250207  27.3538757  30.1975098  35.4051143  27.1596796  29.7022948
  35.2563582  27.0954481  30.5267867  32.8567377  24.5776518  28.7476641
  31.8582881  24.4111124  29.4591160  32.8621305  24.2753933  27.4527340
  33.5469991  24.3304556  26.9353974  31.6417527  23.8085327  26.8058886
  30.9379095  24.4576706  26.9620382  31.8586387  23.7100664  25.2923279
  32.6415471  23.1633289  25.1209843  31.0759287  23.3040112  24.8876054
  32.0778091  25.0643300  24.6356100  31.2942771  25.6179615  24.7809327
  32.8589949  25.4844080  25.0287120  32.3064679  24.9524936  23.1344042
  32.7129768  25.7726194  22.8122951  32.8887703  24.1978167  22.9558191
  31.0595833  24.7476540  22.4107708  30.5534589  25.4333388  22.2929340
  30.6376265  23.5896110  21.9184560  31.3645644  22.4862320  22.0439669
  32.1183792  22.5134701  22.4560851  31.0794044  21.7429499  21.7181366
  29.4737928  23.5352887  21.2814023  28.9985559  24.2469021  21.1928686
  29.1955904  22.7904440  20.9551834  31.1833664  22.4768893  27.3861728
  29.9849466  22.2690905  27.6065285  32.1192280  21.5629576  27.6521389
  32.9596291  21.6571400  27.4976539  31.7472511  20.2879969  28.2520568
  31.0349346  19.8888328  27.7289524  32.9410534  19.3320931  28.2277852
  33.1376203  19.1077299  27.3044339  33.7034123  19.7808666  28.6239067
  32.7282746  18.0264030  28.9863400  33.4986210  17.4533520  28.8502924
  32.6221945  18.2222950  29.9304165  31.4937076  17.2741348  28.5202436
  30.7046773  17.8106857  28.6975666  31.5691072  17.0895172  27.5708199
  31.3501888  16.0032074  29.2236296  31.9042200  15.8322166  29.8589536
  30.4224703  15.0925455  28.9490204  29.5420871  15.3037786  27.9778870
  29.5702002  16.0333761  27.5238792  28.9436540  14.7116239  27.8045213
  30.3767432  13.9660854  29.6489466  30.9467943  13.8275979  30.2782788
  29.7773684  13.3748846  29.4728971  31.2372395  20.4737633  29.6759455
  30.2499139  19.8469415  30.0775632  31.8975138  21.3212188  30.4601099
  32.5858206  21.7807111  30.2283912  31.4544602  21.5199203  31.8367832
  31.3716260  20.6546994  32.2681221  32.4939458  22.3332508  32.6098888
  32.6644797  23.1538077  32.1218411  32.1279713  22.5461500  33.4824200
  33.8429135  21.6466200  32.8347872  34.1771559  21.3173219  31.9856731
  34.8578492  22.6411755  33.3917845  35.7042155  22.1863730  33.5263200
  34.9686794  23.3673244  32.7573687  34.5293377  22.9869285  34.2361665
  33.6924826  20.4724474  33.7665035  34.5595674  20.0564867  33.8919254
  33.3512423  20.7879126  34.6180003  33.0739697  19.8366509  33.3756448
  30.0939660  22.2023182  31.8908924  29.2749347  21.8915863  32.7634859
  29.8491253  23.1614398  30.9923782  30.4211290  23.4611859  30.4246301
  28.5346015  23.7881566  30.9174163  28.3203389  24.1824548  31.7773405
  28.5408660  24.9054008  29.8722311  27.6596353  25.3089550  29.8367867
  29.1993978  25.5706906  30.1250222  28.7665813  24.5280669  29.0076111
  27.4593159  22.7604481  30.5866640  26.3745535  22.7667355  31.1834118
  27.7497861  21.8572339  29.6480330  28.4904320  21.8218217  29.2116116
  26.7822694  20.8264311  29.2880524  25.9615970  21.2531707  28.9955475
  27.3204047  19.9920374  28.1245243  27.5957805  20.5893294  27.4107888
  28.0790460  19.4736258  28.4341576  26.2991645  19.0278748  27.5563230
  25.9072836  18.5192753  28.2824759  25.6100615  19.5336435  27.0963282
  26.8971296  18.0487449  26.5688796  28.1325413  17.8535602  26.5854014
  26.1266854  17.4695370  25.7778753  26.4497165  19.9362558  30.4800015
  25.2768768  19.6333340  30.7302280  27.4756795  19.4979369  31.2213445
  28.2981105  19.7081814  31.0864724  27.2673591  18.5966314  32.3534488
  26.7791145  17.8164440  32.0499940  28.6237986  18.1224948  32.9102077
  29.1730301  18.8987838  33.1040614  28.4393374  17.3419019  34.2079991
  29.3089561  17.0581016  34.5318982  28.0127874  17.9150215  34.8635561
  27.8827017  16.5669358  34.0332354  29.3534564  17.2788690  31.8803767
  30.2023953  16.9923476  32.2515509  28.8090949  16.5065010  31.6627341
  29.5037127  17.8131321  31.0841883  26.4396238  19.2800791  33.4319290
  25.5646037  18.6638831  34.0542628  26.7147822  20.5555231  33.6802823
  27.3019996  21.0105384  33.2469627  26.0443525  21.3201886  34.7190179
  25.9603713  20.7699724  35.5127346  26.8957377  22.5406898  35.0753943
  27.8307662  22.2854871  35.0452062  26.7252217  23.2382742  34.4233595
  26.6191288  23.1195809  36.4520382  26.9824449  24.0180358  36.4955955
  25.6613267  23.1412736  36.5991087  27.2467384  22.3055569  37.5703606
  28.0472125  21.3893479  37.2794165  26.9403711  22.5869157  38.7484851
  24.6505223  21.7757708  34.3111169  23.8871260  22.2270363  35.1719715
  24.2945466  21.6600571  33.0349188  24.7812576  21.3073583  32.4209466
  23.0093538  22.1416327  32.5761527  22.7686319  21.6720540  31.7626824
  22.3388899  21.9431498  33.2487214  22.9611474  23.6241912  32.2932209
  21.8758787  24.2070716  32.2891565  24.1062790  24.2601642  32.0682568
  24.8784471  23.8829301  32.0935734  24.1580432  25.6799950  31.7558949
  23.3548050  26.1097451  32.0902680  25.3669818  26.3430063  32.4179745
  26.1723780  25.8812312  32.1377839  25.4051575  27.2725736  32.1455260
  25.3061009  26.3010313  33.9285951  24.2765927  25.9758604  34.5159449
  26.4125971  26.6439085  34.5687259  26.4317644  26.6383926  35.4281921
  27.1146790  26.8675685  34.1242764  24.2110293  25.8773768  30.2459009
  24.4036880  24.9358164  29.4781193  24.0264097  27.1236298  29.8217736
  23.9159486  27.8080372  30.3314509  23.9995489  27.4168757  28.3958541
  23.3834926  26.8099849  27.9559096  23.5164575  28.8479482  28.1559369
  24.0518487  29.4551783  28.6891393  23.6160633  29.0603674  27.2143182
  22.0536332  29.0569237  28.5311362  21.4926857  28.6979767  27.8261334
  21.8735765  28.5955853  29.3651916  21.6905635  30.5170909  28.7173672
  21.6215182  31.2522840  27.7133448  21.4736472  30.9295813  29.8786682
  25.3867480  27.2034996  27.7985953  26.4093705  27.4395632  28.4473319
  25.4169216  26.7332639  26.5522611  24.7266914  26.6601169  26.0452515
  26.6649435  26.2905196  25.9320025  27.3802132  26.3429627  26.5845743
  26.5653623  24.8341009  25.4504072  25.8830082  24.7795861  24.7624479
  27.8894398  24.3830918  24.8586484  27.8057484  23.4634489  24.5618915
  28.1094105  24.9556455  24.1067514  28.5778594  24.4505059  25.5390041
  26.1779362  23.9018310  26.5985845  26.9650289  23.7210695  27.1356137
  25.5008586  24.3366820  27.1408866  25.6165436  22.5729917  26.1287703
  25.3923188  22.0328973  26.9030120  24.8219401  22.7356682  25.5968910
  26.2861103  22.1200558  25.5916181  27.0269414  27.1979379  24.7604413
  26.3123044  27.2052391  23.7477150  28.1185974  27.9576324  24.8381690
  28.9179170  28.2741283  26.0316528  29.5374021  27.5524560  26.2239762
  28.3379750  28.4565752  26.7881040  29.6686598  29.5186839  25.6319270
  30.5320068  29.5562372  26.0722458  29.1470702  30.3127599  25.8255676
  29.8595413  29.3858856  24.1536663  30.6152036  28.8116042  23.9526581
  29.9647441  30.2558919  23.7381624  28.5611813  28.7292052  23.6690374
  27.9124763  29.4141711  23.4459758  28.7918605  27.8274484  22.4646322
  29.2734328  26.7001705  22.5932278  28.4586398  28.3584260  21.2832476
  28.2503430  29.1850884  21.1676459  28.4202782  27.5629892  20.0582729
  27.9295813  26.7433741  20.2271596  27.6784713  28.3499807  18.9726496
  28.0672762  29.2354528  18.8994389  27.7879979  27.6694628  17.6173956
  27.3111293  28.1854806  16.9479646  28.7197115  27.5994126  17.3572193
  27.4044476  26.7800309  17.6616458  26.2900588  28.4713567  19.3159390
  25.8832826  28.9034523  18.7206302  29.8197378  27.1879430  19.5766059
  30.0777396  26.0304172  19.2259277  30.7127696  28.1656850  19.5008451
  30.5688339  28.9632178  19.7874998  32.0351800  27.9974556  18.9233646
  32.0051787  27.3132325  18.2372468  32.5195333  29.3002565  18.2909284
  32.3586716  30.0264384  18.9139929  33.4704180  29.2247972  18.1152518
  31.8482317  29.6488168  17.0087113  32.4517748  29.4502676  15.7874120
  31.6431488  29.8578521  14.8277273  31.8210529  29.8266573  13.9154960
  30.5447082  30.3249135  15.3855112  29.8661611  30.6407773  14.9619950
  30.6422693  30.1999481  16.7495586  30.0043366  30.4541077  17.3759816
  33.0426886  27.5766412  19.9870337  32.8914988  27.8873109  21.1699348
  34.1076711  26.9146768  19.5315601  34.2403622  26.7516735  18.6975163
  35.1684680  26.3929506  20.3878981  34.9075361  26.4957518  21.3167099
  35.4085766  24.9061701  20.1220851  35.5337888  24.7728554  19.1685732
  36.2022504  24.6240564  20.6028967  34.3069332  24.1261839  20.5544618
  34.4528297  23.3127106  20.4030405  36.4683380  27.1631062  20.1704877
  36.8982945  27.3597414  19.0309567  37.0949279  27.5791925  21.2703275
  36.7579004  27.5219094  22.0593985  38.4259448  28.1814994  21.2535802
  38.5558908  28.6674854  20.4242585  38.5668662  29.1524161  22.4177498
  38.4466838  28.6571683  23.2429618  39.4605519  29.5281025  22.3941779
  37.5874501  30.3172222  22.4399261  36.6942708  29.9994357  22.2320237
  37.5842008  30.8947909  23.8319577  36.9628660  31.6390057  23.8632845
  37.3074368  30.2073715  24.4586292  38.4782629  31.2000031  24.0496123
  37.9857073  31.3543633  21.4191173  37.3512803  32.0867290  21.4489636
  38.8751952  31.6780903  21.6296812  37.9813696  30.9474037  20.5382500
  39.4833400  27.0863120  21.3517430  39.6295570  26.4509860  22.3992059
  40.2523717  26.8947483  20.2835115  40.1785071  27.3294910  19.5443804
  41.3137569  25.8988301  20.2881291  41.0638713  25.1729438  20.8816367
  41.5057105  25.3205483  18.8858902  41.7017589  26.0460147  18.2720021
  42.2458841  24.6946464  18.9033527  40.2803917  24.5824283  18.3612164
  40.0430080  23.7521868  19.0268882  39.4332317  25.2673287  18.3191759
  40.5709299  24.0450240  16.9616418  41.0636125  22.8884150  16.8795546
  40.2965254  24.7957668  15.9882593  42.6283424  26.4952723  20.7959547
  42.8238436  27.7120871  20.8137037  43.5205634  25.6111915  21.2413544
  43.3627935  24.7697866  21.3315021  44.8666618  26.0000980  21.6218814
  45.4575755  25.2413603  21.4928579  45.1635738  26.7098787  21.0318572
  45.0431097  26.4809550  23.0431663  46.0470520  27.1388784  23.3338423
  44.1171480  26.1580682  23.9441175  43.4491327  25.6420384  23.7808670
  44.1490401  26.6583815  25.3161068  44.9770875  27.1458061  25.4488045
  42.9938119  27.6385078  25.5321838  42.1780631  27.2268962  25.2067554
  42.9128533  27.8128655  26.4825196  43.1393819  28.9885551  24.8278823
  43.4025734  28.8421866  23.9062660  41.8127968  29.7314347  24.8316017
  41.9273618  30.5831099  24.3820784  41.1513613  29.1963670  24.3660412
  41.5354242  29.8763837  25.7494923  44.2235902  29.8243887  25.5083408
  44.3006986  30.6753752  25.0497329  43.9746363  29.9694642  26.4353068
  45.0655542  29.3454494  25.4629568  44.0953677  25.5437905  26.3587501
  43.7734833  25.8080062  27.5235580  44.4310916  24.3057181  25.9890578
  44.8044259  24.0933890  25.2434380  44.1664193  23.1881119  26.8893077
  43.3342173  23.3644325  27.3561482  43.9745076  21.8925563  26.0866842
  43.8540697  21.1556935  26.7053868  43.1886257  21.9848508  25.5256108
  45.0924034  21.6222179  25.2663446  45.2088350  22.2514740  24.7229530
  45.2482901  22.9824711  27.9508261  44.9709280  22.3462607  28.9733502
  46.4601846  23.4961859  27.7606998  46.6905048  23.9652476  27.0775580
  47.5226654  23.2905841  28.7373770  47.1994245  22.6982012  29.4338838
  48.7600028  22.6408906  28.1043189  49.3253230  22.2890087  28.8096210
  48.4714850  21.9201955  27.5220328  49.5046504  23.5712344  27.3431754
  49.0284245  23.8839182  26.7256952  47.9010542  24.6146556  29.3878258
  47.8932450  25.6635289  28.7387244  48.2210217  24.5565345  30.6797050
  48.2700862  23.8312464  31.1394612  48.5221541  25.7672362  31.4347088
  47.7436558  26.3455287  31.4320299  48.8498867  25.4161987  32.8854138
  49.0588537  26.2327929  33.3665019  48.0789716  24.9852833  33.2859408
  49.9585435  24.5396107  32.9657856  50.1235971  24.3579626  33.7692103
  49.6807015  26.5268031  30.8037120  50.7031685  25.9457587  30.4325317
  49.5144291  27.8429724  30.6945848  48.8402148  28.2691724  31.0167008
  50.4622075  28.6903480  30.0156189  50.4937990  29.5503738  30.4633507
  51.3432984  28.2886612  30.0745045  50.1586582  28.9373598  28.5541057
  50.8774908  29.7167434  27.9197596  49.1272001  28.2974957  27.9940939
  48.6171387  27.7390614  28.4053121  48.7806727  28.5104595  26.5948029
  49.5847990  28.4683426  26.0532421  47.8036408  27.4391711  26.0985785
  47.1387519  27.2771187  26.7862382  47.3728378  27.7558003  25.2903232
  48.4776378  26.1196547  25.7824415  49.7268039  26.0518196  25.8110834
  47.7463078  25.1433938  25.4998110  48.1394029  29.8796136  26.3991880
  47.3127578  30.3151652  27.2021318  48.4959914  30.5383572  25.2994924
  49.0956702  30.2629381  24.7478670  47.8958321  31.8080716  24.9222083
  47.0806759  31.9391255  25.4310651  48.8353607  32.9876484  25.2096359
  48.3966988  33.8114561  24.9439617  49.0333626  33.0086154  26.1588396
  49.6530351  32.8694589  24.7018597  47.5360400  31.7908175  23.4442551
  48.2390742  31.1922153  22.6226345  46.4290714  32.4504442  23.1110553
  45.8963430  32.8108026  23.6809284  46.0087337  32.6277725  21.7249983
  46.7788817  32.5223777  21.1460425  44.9406020  31.5916375  21.2937282
  44.7377651  31.7283103  20.3549313  45.4755742  30.1728173  21.4482566
  44.7897082  29.5453584  21.1715560  46.2633422  30.0701945  20.8905576
  45.7068949  30.0230582  22.3783689  43.6514638  31.7624286  22.0731973
  43.0115472  31.0974603  21.7741204  43.8362779  31.6432522  23.0178304
  43.3024744  32.6530808  21.9142032  45.4735539  34.0450558  21.5420518
  44.8259643  34.6067386  22.4343041  45.7311647  34.6169069  20.3757821
  46.2528419  34.2906487  19.7745871  45.1215115  35.8877071  20.0197274
  45.1361725  36.4792127  20.7885624  45.8874236  36.5587320  18.8832300
  46.8009017  36.7196852  19.1665000  45.8746267  35.9783143  18.1057588
  45.2744898  37.8846494  18.4912821  44.3782313  37.7323401  18.1547415
  45.2445186  38.4624384  19.2701580  46.0628286  38.5835846  17.4227852
  46.9535272  38.7791334  17.7535444  46.1093829  38.0203925  16.6350813
  45.4207274  39.8408085  17.0550338  44.7016644  40.0632617  17.4706261
  45.8164544  40.6070834  16.0461468  46.8510984  40.2437626  15.3005894
  47.2679380  39.5108659  15.4713532  47.1056332  40.7410851  14.6465678
  45.1721409  41.7345018  15.7824465  44.5007665  41.9700760  16.2657044
  45.4269761  42.2323189  15.1292404  43.6742749  35.6774401  19.6036759
  43.3332110  34.6709260  18.9725183  42.8232130  36.6536654  19.9467439
  43.0488896  37.3405988  20.4120251  41.4121394  36.6530408  19.5668069
  41.2976269  36.1359993  18.7540314  40.5381386  36.0396064  20.6517856
  40.9925240  35.2638163  21.0161972  40.4006904  36.6976411  21.3504660
  39.1905508  35.5962766  20.1674853  39.0571610  34.4221499  19.4560441
  39.8093165  33.9075078  19.2741108  37.8207355  34.0037410  19.0064266
  37.7419876  33.2104083  18.5270354  36.7004656  34.7660312  19.2755161
  35.8661991  34.4881130  18.9739238  36.8220707  35.9410823  19.9858321
  36.0687045  36.4556337  20.1670402  38.0619217  36.3490061  20.4282853
  38.1394745  37.1419730  20.9083384  41.0424998  38.1075197  19.2696897
  40.5054732  38.8207950  20.1114491  41.3406916  38.5454637  18.0482923
  41.6892511  38.0604585  17.4305552  41.0928751  39.9125188  17.6538807
  41.3478009  40.0361617  16.7260627  40.1483644  40.1128121  17.7453800
  41.8812927  40.8920066  18.5081935  43.1130636  40.8220532  18.5813092
  41.1941785  41.8170298  19.1824102  39.7294835  41.9535618  19.2981534
  39.3443313  41.1501676  19.6831747  39.3395615  42.1546117  18.4333547
  39.5550799  43.1271241  20.2422186  39.4534438  42.8196974  21.1563701
  38.7961178  43.6695413  19.9769995  40.8055748  43.9211124  20.1180450
  40.9675413  44.4438962  20.9184455  40.7835191  44.4860987  19.3298990
  41.8895448  42.8457240  19.9639068  42.6323135  43.2096615  19.4574187
  42.3840750  42.3919823  21.3296387  42.8870562  43.2212732  22.0932377
  42.2760054  41.1138244  21.6700094  41.9561519  40.5026896  21.1566626
  42.6975135  40.6290724  22.9698615  43.2287705  41.3132727  23.4051890
  41.5004304  40.2976615  23.8887723  41.8330943  40.1290145  24.7844346
  40.5333768  41.4726994  23.9676273  39.7946483  41.2347194  24.5495103
  41.0017114  42.2430167  24.3248610  40.2036347  41.6690007  23.0774155
  40.7839530  39.0270269  23.4113482  40.0387141  38.8437405  24.0041501
  40.4616004  39.1687809  22.5073529  41.4107299  38.2870562  23.4269402
  43.5741846  39.3967387  22.7898324  43.6591756  38.8073751  21.7095783
  44.2226951  39.0191980  23.8834476  44.2810022  39.5076958  24.5895498
  44.9081313  37.7449573  24.0224076  44.8781557  37.2638938  23.1812053
  46.3745228  37.9391941  24.4264126  46.7958380  38.5405406  23.7925721
  46.4052084  38.3244350  25.3156515  47.1848088  36.6430327  24.4493122
  46.9006651  36.1077273  25.2071588  47.0283687  36.1581127  23.6239159
  48.6826512  36.8804351  24.5789205  49.1561152  37.1536656  25.7040725
  49.3863780  36.7953782  23.5498496  44.1657274  36.9374552  25.0760659
  43.7775035  37.4804378  26.1195557  43.9157443  35.6654259  24.7783614
  44.0910243  35.3074710  24.0161999  43.3118444  34.7442800  25.7322211
  42.8981149  35.2454303  26.4512213  42.2446275  33.8716131  25.0666150
  42.6888404  33.2447202  24.4751708  41.7755864  33.3819830  25.7606358
  41.1939057  34.6097995  24.2408295  41.6347760  35.1605142  23.5765421
  40.3278472  33.5955473  23.5232439  39.6605065  34.0655495  22.9996790
  40.8874221  33.0581069  22.9417434  39.8941003  33.0300194  24.1816297
  40.3572479  35.5161357  25.1408437  39.6965637  35.9754682  24.5992275
  39.9157240  34.9722570  25.8122613  40.9418284  36.1614457  25.5678560
  44.4086615  33.8665913  26.3178726  45.3019448  33.4167648  25.5971333
  44.3267960  33.6173797  27.6247099  43.6594826  33.8480203  28.1155945
  45.3767002  32.9205499  28.3570557  45.9429363  32.4367724  27.7356564
  46.2411778  33.9273759  29.1250928  46.6231939  34.5539497  28.4916530
  45.6757274  34.4037293  29.7543830  47.3873344  33.3116500  29.9113610
  48.4421603  32.6969223  29.2642326  48.4294797  32.6205695  28.3379948
  49.5013750  32.1638102  29.9784726  50.1977646  31.7389079  29.5309231
  49.5305192  32.2722759  31.3585823  50.2406783  31.9132969  31.8395158
  48.5005987  32.9008782  32.0175519  48.5145714  32.9724464  32.9449891
  47.4356180  33.4308061  31.2926530  46.7413651  33.8551203  31.7422244
  44.7447960  31.9230140  29.3148287  43.8536995  32.2816532  30.0888325
  45.2069604  30.6730424  29.2650382  45.7617174  30.3786326  28.6777142
  44.7853349  29.6796696  30.2421633  43.9747633  29.9800939  30.6821825
  44.5110027  28.3300531  29.5811458  43.7568036  28.4188476  28.9786483
  45.2994136  28.0505421  29.0900137  44.1817485  27.2528018  30.5910574
  43.1680492  27.4381834  31.5238578  42.6804512  28.2297986  31.5176521
  42.8743727  26.4698562  32.4497112  42.1921399  26.6038528  33.0672266
  43.6018107  25.2944957  32.4592936  43.3221650  24.3141180  33.3811568
  42.6887571  24.5581328  33.8771934  44.6108592  25.0927298  31.5528546
  45.0957826  24.2996133  31.5609557  44.8933110  26.0654083  30.6272702
  45.5792888  25.9262585  30.0151788  45.8810255  29.5438866  31.2856571
  46.9319105  28.9566402  30.9850172  45.7053424  30.0663659  32.5036262
  44.5267134  30.7773366  33.0227307  43.7519113  30.1948527  33.0212529
  44.3664377  31.5855281  32.5107432  44.9278976  31.1243763  34.4509831
  44.6205124  30.4420187  35.0674702  44.5798695  31.9946651  34.7024685
  46.4109430  31.1624123  34.4482277  46.7651017  30.9827917  35.3328197
  46.7363441  32.0096282  34.1064553  46.7929707  30.0291239  33.4903336
  47.6392787  30.2391036  33.0660503  46.9204079  28.7201430  34.2494316
  47.8620463  28.5837174  35.0386155  46.0161681  27.7724000  34.0450631
  45.4497249  27.7890982  33.3987495  45.8824424  26.6032274  34.8903506
  45.8091696  25.8084129  34.3399535  46.6658342  26.5188517  35.4573480
  44.6489977  26.7005319  35.7735691  43.9653466  27.7220854  35.8411303
  44.3738774  25.6013346  36.4641957  44.8545045  24.8880021  36.4708638
  43.1778136  25.5379207  37.2913317  42.4075258  25.7794277  36.7517392
  42.9594898  24.1205656  37.8180198  42.1587055  24.1070731  38.3650971
  42.8586205  23.5165805  37.0664299  43.7282133  23.8598527  38.3502171
  43.2651422  26.5202373  38.4511592  44.3304463  26.7328548  39.0370901
  42.1315897  27.1377056  38.7688204  41.3813459  27.0226742  38.3644853
  42.0838137  28.0908309  39.8710407  42.7048585  27.8110143  40.5611653
  42.5071274  29.4760801  39.3839677  42.4698526  30.0971491  40.1282532
  43.4118988  29.4260880  39.0394006  41.9012610  29.7628704  38.6827985
  40.6823891  28.0988352  40.4681086  40.3014429  27.1516101  41.1619518
  39.9085729  29.1507770  40.1887450  40.1771641  29.8506279  39.7672091
  38.5075529  29.2017778  40.5867095  38.4454370  29.1280545  41.5518014
  37.9274157  30.5558821  40.1668173  38.2670276  31.2393173  40.7663689
  38.2079631  30.7475754  39.2594122  36.4355140  30.6187618  40.2048229
  35.7279923  30.8748632  41.3608519  36.0756076  31.0121998  42.1353474
  34.4342599  30.8732509  41.0940170  33.7511821  31.0208842  41.7084787
  34.2765316  30.6300810  39.8061618  35.5129110  30.4664002  39.2269524
  35.6830811  30.2853059  38.3312237  37.7148794  28.0609318  39.9679098
  36.7835690  27.5332422  40.5904077  38.0709563  27.6837439  38.7449884
  38.6293843  28.1204006  38.2586110  37.5581200  26.4880399  38.0919578
  37.2882992  25.8430039  38.7651637  36.3426287  26.8075338  37.2116882
  35.9849648  25.9798857  36.8533683  35.6707377  27.2551378  37.7492512
  36.7158373  27.6504396  36.1425549  37.2993812  27.2737813  35.6705240
  38.7015793  25.8865180  37.2827963  39.7575476  26.5036325  37.1070081
  38.5081024  24.6608373  36.7939483  37.7978511  24.1845654  36.8906601
  39.5811869  24.0463653  36.0197823  40.4192876  24.1869906  36.4865925
  39.3674623  22.5371704  35.8966825  40.1213536  22.1451846  35.4276144
  39.2856826  21.9028665  37.2763885  39.1509447  20.9465648  37.1935414
  40.1079323  22.0649625  37.7642167  38.5445249  22.2853658  37.7722682
  38.1667343  22.2699125  35.1644752  37.5075153  22.6067841  35.5609859
  39.7119605  24.6721136  34.6407090  40.7776934  24.5646527  34.0277192
  38.6715988  25.3554428  34.1643879  37.9662811  25.5323015  34.6234106
  38.6229925  25.8762369  32.8083466  39.3289208  25.4592523  32.2887255
  37.2805901  25.5124251  32.1537583  37.2522602  25.8864678  31.2593336
  37.2006322  24.5463688  32.1130538  36.0814511  26.0508853  32.9272550
  36.1294087  26.0458096  34.1743370  35.0807387  26.4728658  32.2919660
  38.8081402  27.3840961  32.7159503  38.7038832  27.9309670  31.6122639
  39.0653636  28.0835598  33.8192094  39.2857931  27.7558051  34.5829428
  38.9745735  29.5354823  33.7642624  38.1128149  29.7720329  33.3876500
  39.0496183  30.1633802  35.1668295  39.2285628  31.1127035  35.0733302
  38.1961524  30.0343758  35.6108551  40.1436887  29.5683154  36.0774567
  39.9818493  29.5460454  37.3018761  41.2459513  29.1396125  35.5084918
  41.3309687  29.1759950  34.6532460  41.8763924  28.8064012  35.9896697
  40.0462803  30.1338298  32.8571677  41.2185738  29.7504036  32.9019599
  39.6286487  31.0912107  32.0294723  38.8031817  31.3194444  31.9449348
  40.5262919  31.8544379  31.1772277  41.4040834  31.4409188  31.1782936
  40.0176729  31.9187123  29.7279390  39.1812350  32.4090696  29.7337112
  40.6689185  32.4201161  29.2122575  39.7566719  30.6216427  28.9553550
  39.0915538  30.1002012  29.4318953  39.2008792  30.9328926  27.5649453
  39.0426178  30.0996400  27.0936776  38.3685087  31.4222127  27.6605807
  39.8466884  31.4696150  27.0801190  41.0112350  29.7790822  28.8375236
  40.8032403  28.9702046  28.3428154  41.6904689  30.2887105  28.3678531
  41.3239683  29.5520568  29.7268820  40.6587672  33.2740650  31.7008985
  39.7749201  33.7968510  32.3898594  41.7813135  33.9033195  31.3559062
  42.4572180  33.5182868  30.9885863  41.9652075  35.3283827  31.5765662
  41.1556593  35.6914186  31.9684319  43.1393992  35.6539573  32.5333086
  43.1341390  36.6074309  32.7123408  42.9699142  34.9361970  33.8671800
  43.7168287  35.1589094  34.4428561  42.1387849  35.2243034  34.2768735
  42.9470604  33.9789833  33.7093520  44.4762947  35.3156391  31.9212161
  45.1772648  35.5360865  32.5531948  44.4990635  34.3674710  31.7178056
  44.5905052  35.8320036  31.1074682  42.1640146  35.9913619  30.2185237
  42.5180734  35.3457989  29.2228462  41.8785564  37.2890031  30.1755589
  41.6954451  37.7633144  30.8700458  41.8478992  38.0460206  28.9295964
  42.2377566  37.5140583  28.2184541  40.4112171  38.4274042  28.5211649
  40.0480864  39.0230409  29.1948874  40.4135084  39.1789079  27.2002024
  39.4993737  39.4066836  26.9659057  40.9415564  39.9860473  27.2973219
  40.7987247  38.6108406  26.5151156  39.5145511  37.1935454  28.4654382
  38.6197265  37.4652603  28.2071943  39.8737569  36.5717005  27.8139582
  39.4948319  36.7793255  29.3430680  42.6920225  39.2935758  29.1140735
  42.5726624  39.9829282  30.1316379  43.5547415  39.5759154  28.1445199
  43.6563545  39.0992962  27.4360794  44.4232183  40.7417973  28.1979002
  44.2176141  41.2594784  28.9920773  45.8953626  40.3385750  28.2533961
  46.0214106  39.7054731  28.9771149  46.1416670  39.9287301  27.4094913
  46.8210462  41.5102846  28.4918397  46.7550182  42.2433723  29.6630984
  46.1329095  42.0078365  30.3133542  47.5844354  43.3158118  29.8843891
  47.5268390  43.7984968  30.6771607  48.4985691  43.6697226  28.9248408
  49.3282552  44.7432068  29.1441728  49.1667493  45.0826789  29.8953043
  48.5874841  42.9565053  27.7514959  49.2070806  43.1986224  27.1018526
  47.7455288  41.8826435  27.5430417  47.8042638  41.4030370  26.7479839
  44.1731759  41.6171933  26.9793361  44.0818167  41.1154315  25.8557287
  44.0584072  42.9216406  27.2090171  44.0759966  43.2790235  27.9912307
  43.8885810  43.8838626  26.1228297  43.7075139  43.4106709  25.2957123
  42.7396896  44.8681043  26.3843481  43.0198502  45.5009693  27.0646598
  42.4339515  45.6542679  25.1141162  41.7075632  46.2723717  25.2924831
  43.2273205  46.1453811  24.8478279  42.1775313  45.0349697  24.4131565
  41.4988042  44.1462487  26.9026403  40.7958150  44.7976955  27.0570754
  41.2108830  43.4990916  26.2412100  41.7196288  43.6953981  27.7335171
  45.2025661  44.6358763  25.9737541  45.4415210  45.5958785  26.7136334
  46.0760844  44.2582390  25.0411846  45.9262966  43.2267984  24.0028095
  45.1057946  43.3659382  23.5033231  45.9571688  42.3414167  24.3971432
  47.1208765  43.4501834  23.1209009  46.8981679  44.0558956  22.3978914
  47.4429440  42.6057819  22.7688675  48.1717143  44.0636893  23.9717643
  48.7361455  44.6535110  23.4479238  48.7030410  43.3785635  24.4073518
  47.4128856  44.8777881  25.0277909  47.8431659  44.7537431  25.8886583
  47.3950635  46.3600188  24.6983114  48.2411173  47.1050308  25.2113425
  46.4555249  46.8174033  23.8682140  45.8408812  46.3341436  23.5097210
  46.4093089  48.2266201  23.5015085  47.2618559  48.4815319  23.1163428
  45.3267998  48.4566552  22.4462764  45.3724104  49.3757370  22.1406650
  45.4745036  47.8514933  21.7031743  44.0420371  48.2139340  22.9930280
  43.9893127  47.4204974  23.2630770  46.1457406  49.1253942  24.6977643
  46.5011541  50.3088042  24.6609407  45.5371068  48.5918573  25.7530482
  45.3377158  47.7582353  25.8206990  45.1465349  49.3789027  26.9105638
  45.4424302  50.2932725  26.7792522  43.6168963  49.3942209  27.0354477
  43.3687671  49.9217012  27.8111425  43.2389156  49.7865445  26.2329530
  43.2993108  48.4839003  27.1404128  45.7540857  48.8773281  28.2121836
  45.4977263  49.4757359  29.2630085  46.5351603  47.7973497  28.1809570
  46.7253248  47.3612125  27.4644022  47.1514988  47.2449547  29.3887735
  47.6223755  46.4308665  29.1499254  48.1806232  48.2154885  29.9747301
  47.7425053  49.0567012  30.1789354  48.5549031  47.8309929  30.7824235
  49.2265680  48.4492054  29.0432045  49.7876924  48.9822642  29.3703647
  46.0944479  46.8748947  30.4303637  46.3065676  47.0116241  31.6352190
  44.9475538  46.3906853  29.9594760  44.7758604  46.3078342  29.1202597
  43.8548891  45.9451741  30.8134875  43.9718341  46.3115156  31.7044907
  42.4978680  46.4231590  30.2668702  42.4325353  46.1651955  29.3340533
  41.3415264  45.7543579  31.0124433  40.5026451  46.0747785  30.6464353
  41.4071485  44.7935065  30.8990312  41.3995832  45.9814981  31.9543699
  42.3941960  47.9521108  30.3354811  41.5317654  48.2257183  29.9856892
  42.4820119  48.2329880  31.2596106  43.1065116  48.3400258  29.8023718
  43.8997222  44.4256496  30.9067349  43.9033723  43.7271204  29.8821723
  43.9289990  43.9136231  32.1284799  43.9559383  44.3886152  32.8445146
  43.9174014  42.4804275  32.3851100  43.9890455  42.0003582  31.5451174
  45.0882646  42.0723844  33.2778838  45.9115146  42.2890731  32.8126576
  45.0383771  42.5944119  34.0942297  45.1804111  40.6052714  33.6909836
  44.3564349  40.3455151  34.1310970  45.3669355  39.7251538  32.4762298
  45.4231972  38.7997734  32.7628580  44.6087321  39.8426150  31.8823456
  46.1857401  39.9811026  32.0231643  46.3245337  40.4052227  34.6685587
  46.3662063  39.4677408  34.9176274  47.1539413  40.6717187  34.2419759
  46.1666807  40.9504738  35.4554066  42.5863908  42.1257272  33.0327367
  42.2712833  42.6095121  34.1256596  41.8035468  41.3028492  32.3535990
  41.9891301  41.0055545  31.5680242  40.5387734  40.8138460  32.8743582
  40.2238774  41.4055805  33.5755977  39.4953829  40.7751188  31.7653901
  39.3475145  41.6778379  31.4428638  39.8255567  40.2173739  31.0440435
  38.1727066  40.2240128  32.2016774  37.2597492  41.0158353  32.8779909
  37.4746103  41.9007229  33.0690475  36.0442873  40.5133202  33.2808866
  35.4380723  41.0538096  33.7330333  35.7289717  39.2027906  32.9950312
  34.5192875  38.6894596  33.3827402  34.4589788  37.8856638  33.1468988
  36.6165207  38.3995666  32.3239537  36.3980495  37.5157441  32.1360328
  37.8283289  38.9090845  31.9304180  38.4285717  38.3632660  31.4751195
  40.7971597  39.4389023  33.4768732  41.0138528  38.4677957  32.7512624
  40.8241987  39.3702906  34.8081964  40.6510269  40.0255241  35.3365888
  41.1642465  38.1293534  35.4796146  41.8482706  37.6712737  34.9672319
  41.5302818  38.3353795  36.3540323  40.0088281  37.1753844  35.6719179
  40.2276519  36.0034365  35.9979288  38.7879039  37.6507506  35.5010024
  38.5883623  38.4541965  35.2675138  37.6682900  36.7700850  35.7153659
  36.8417198  37.2229580  35.4901088  37.7577748  35.9788997  35.1616835
  37.6214048  36.3509375  37.1712238  38.1933525  36.9837331  38.0580065
  36.9404483  35.2412241  37.4058543  36.6235527  34.7192422  36.8005726
  36.6739747  34.8175229  38.7724588  36.4513632  35.6024045  39.2968404
  35.4429346  33.9085446  38.7654729  35.2312347  33.6346047  39.6716501
  35.6061893  33.1375993  38.2005506  34.0399564  34.8411384  38.0925243
  37.8780617  34.1564992  39.4373468  37.8310521  33.8804783  40.6397077
  38.9715494  33.9498217  38.7063242  39.0083169  34.0432729  37.8514061
  40.2293925  33.5373656  39.3110338  40.0618902  32.7891002  39.9049387
  41.2149275  33.0759993  38.2322702  42.0447507  32.8059626  38.6581148
  40.8300158  32.3255224  37.7525866  41.3800892  33.8105953  37.6205420
  40.8788030  34.6462355  40.1233671  41.8203256  34.3594531  40.8639939
  40.4214802  35.8926105  39.9835089  39.7617263  36.1015998  39.4744260
  40.9958013  37.0400113  40.6861018  41.7053445  36.7354934  41.2715608
  41.5859183  38.0764138  39.7091138  40.8757994  38.3777799  39.1208735
  42.1339249  39.2972665  40.4712663  42.4973956  39.9303598  39.8321200
  41.4110431  39.7078680  40.9703488  42.8302264  39.0024877  41.0789921
  42.6879309  37.4589240  38.8525581  42.2966022  36.7684272  38.2947258
  43.0709846  38.1530101  38.2930509  43.8220028  36.8257949  39.6391168
  44.4725632  36.4627957  39.0176430  44.2385213  37.5044902  40.1936030
  43.4641796  36.1174696  40.1955150  39.9120424  37.6842658  41.5405488
  38.8274111  38.0105463  41.0407889  40.2284612  37.9165529  42.8157989
  40.9996726  37.7417400  43.1552139  39.2952455  38.4957976  43.7731609
  38.3842601  38.3412588  43.4752745  39.4681265  37.8745537  45.1590625
  40.4149799  37.7269476  45.3093991  39.1330158  38.5020266  45.8178740
  38.7693095  36.5626962  45.3977877  38.4807503  35.6829577  44.3528558
  38.7343604  35.9014974  43.4856832  37.8480664  34.4818467  44.5969324
  37.6631672  33.8974146  43.8963095  37.4799065  34.1572459  45.8906192
  36.8450628  32.9668901  46.1865963  36.7355061  32.5177947  45.4852828
  37.7496388  35.0214011  46.9261859  37.5042534  34.7986769  47.7953194
  38.3819035  36.2079973  46.6763523  38.5648823  36.7840542  47.3839872
  39.5125968  39.9944316  43.9135904  40.6537622  40.4720366  43.8915667
  38.4122119  40.7244756  44.1176662  37.6085717  40.4327347  44.0314247
  38.5045078  42.1232291  44.5179802  39.1565405  42.5700381  43.9554181
  37.1591146  42.8421824  44.3506359  37.3039263  43.7964420  44.4444988
  36.8141421  42.6517218  43.4639270  36.0810184  42.4355567  45.3657488
  35.7168705  41.5735577  45.1066659  36.4866688  42.3710189  46.2437412
  34.9329055  43.4154148  45.4555313  35.1267751  44.6292137  45.1937052
  33.8223078  42.9675420  45.8075181  38.9720114  42.2378800  45.9707722
  38.7937865  41.3327335  46.7925000  39.5417999  43.3985511  46.2917981
  39.5951570  44.0791842  45.7686799  40.1377052  43.5999279  47.6103826
  40.8362197  42.9410353  47.7428892  40.7757988  44.9811878  47.6780786
  40.0883099  45.6415253  47.4952695  41.1163489  45.1144675  48.5765686
  41.9214065  45.2478483  46.7180743  41.6073560  45.1477069  45.8056698
  42.3989082  46.6830161  46.9078571  43.1318019  46.8551876  46.2956889
  41.6631456  47.2869735  46.7230656  42.6985867  46.7971511  47.8231991
  43.0500924  44.2513326  46.9496220  43.7693832  44.4395693  46.3278168
  43.3676061  44.3420512  47.8615607  42.7121685  43.3536579  46.8042824
  39.1336409  43.4544859  48.7463772  39.4940429  42.9861429  49.8331781
  37.8804404  43.8517463  48.5329444  37.5730176  44.1387791  47.7830274
  36.9097842  43.8192585  49.6224713  37.3170898  44.2117133  50.4115539
  35.6901964  44.6640563  49.2638232  35.1523836  44.7964728  50.0596204
  35.9898006  45.5204720  48.9198415  34.9049700  44.0249804  48.2816061
  34.2384902  44.4988188  48.0925774  36.4665943  42.4069087  49.9861649
  35.7591499  42.2372873  50.9871259  36.8496351  41.3984704  49.2108972
  37.2638881  41.4942960  48.4631988  36.5933006  40.0097110  49.5699444
  35.8204704  39.9642142  50.1543351  36.3125230  39.1680881  48.3335088
  37.0501317  39.2663779  47.7116836  36.2263482  38.2382972  48.5992471
  35.0522889  39.5603037  47.6181168  34.2901307  39.4108630  48.1990776
  35.1043895  40.4934710  47.3592011  34.8744536  38.7235610  46.3677863
  34.1324399  39.0775611  45.8537848  35.6898074  38.7621506  45.8442646
  34.5933178  37.3237178  46.6593128  34.3597768  37.1180182  47.4610380
  34.4920291  36.3843693  45.7201136  34.6758839  36.7063065  44.4517750
  34.8517594  37.5201638  44.2355665  34.6147571  36.1032348  43.8419373
  34.2103985  35.1271689  46.0442560  34.0960409  34.9101151  46.8690548
  34.1576525  34.5263828  45.4311721  37.8003898  39.4715284  50.3247603
  38.8681834  39.2664682  49.7370912  37.6273531  39.2225079  51.6196909
  36.8878694  39.3480018  52.0415203  38.6993989  38.7034885  52.4555316
  39.5298104  38.7557566  51.9561794  38.8633222  39.5663019  53.7147938
  39.5874613  39.2111021  54.2532710  39.2122056  41.0009306  53.3306323
  39.3150514  41.5421374  54.1281459  40.0437906  41.0165607  52.8297691
  38.5075432  41.3775984  52.7817732  37.6506750  39.5481193  54.4825992
  37.0160650  39.8519152  54.0244724  38.4886404  37.2469385  52.8352248
  39.2858888  36.6963308  53.6001458  37.4342499  36.6138667  52.3236791
  36.8232549  37.0041543  51.8608080  37.2052974  35.1882122  52.4927080
  38.0306865  34.7554235  52.7601697  36.1395118  34.9031424  53.5534126
  35.2995255  35.2986634  53.2722380  36.0370567  33.9425689  53.6488617
  36.5112765  35.4539317  54.8039613  37.2382134  35.1188429  55.0594690
  36.7701264  34.6158469  51.1535302  36.2397088  35.3340365  50.3027511
  37.0069448  33.3211916  50.9698273  37.3739407  32.8031303  51.5485401
  36.6601173  32.6773358  49.7113558  36.9287665  33.2497270  48.9747358
  37.3966894  31.3450415  49.5736483  37.1514732  30.9339893  48.7300209
  38.3526282  31.5088854  49.5967591  37.1419961  30.7670876  50.3097282
  35.1593761  32.4486750  49.6130714  34.4583320  32.3148431  50.6181730
  34.6742709  32.3786075  48.3812692  35.1363454  32.5197405  47.6694085
  33.2830403  32.0479658  48.1267116  32.9503797  31.4594016  48.8219195
  32.7477903  32.8568601  48.1165414  33.1486722  31.3551847  46.7926930
  33.9421501  31.5811533  45.8754652  32.1321008  30.5058922  46.6876979
  31.5790125  30.3420827  47.3254422  31.8451504  29.7561863  45.4652331
  31.2066277  29.0552119  45.6730158  31.2098838  30.6673837  44.4109630
  30.6580698  31.3295520  44.8563432  31.9137876  31.1064546  43.9075574
  30.3330908  29.9083225  43.4297805  30.8036945  29.4264061  42.4010717
  29.0483985  29.8070398  43.7436048  28.7547295  30.1584249  44.4711995
  28.5104057  29.3873774  43.2202300  33.1113198  29.0861392  44.9258576
  33.5553259  29.3376733  43.8042627  33.6853166  28.2103220  45.7470500
  33.3825214  28.0048546  46.5250938  34.9084686  27.5103403  45.3838972
  35.1918784  27.8244583  44.5115493  36.0448115  27.8265533  46.3774203
  36.8224929  27.2936622  46.1468826  36.4381669  29.2902846  46.2890566
  37.1525583  29.4639135  46.9224134  36.7410951  29.4813757  45.3884880
  35.6664568  29.8377254  46.5036679  35.6390006  27.4718535  47.8025395
  36.3736498  27.6814677  48.4017102  34.8556419  27.9890770  48.0458950
  35.4370104  26.5238516  47.8460973  34.6778416  26.0076623  45.2716528
  35.6189967  25.2340433  45.3512690  33.4241949  25.5880692  45.0743171
  32.7386889  26.1009671  44.9948985  33.1315503  24.1625551  44.9773547
  33.4669007  23.7157358  45.7709678  31.6201079  23.9400018  44.9099601
  31.4432282  22.9885104  44.8458459  31.2120427  24.2988801  45.7131483
  31.2687404  24.3950966  44.1282622  33.8010673  23.5363910  43.7642358
  34.0925105  22.3335777  43.7646584  34.0411865  24.3234479  42.7215805
  33.8624004  25.1650370  42.7037659  34.6376659  23.8258309  41.4929647
  34.5812946  22.8570425  41.4918230  33.8332681  24.3383242  40.2952248
  33.7832319  25.3059346  40.3362670  34.2715613  24.0612056  39.4754655
  32.4077188  23.7869802  40.2827761  32.2478170  22.5768428  40.5384555
  31.4527458  24.5540061  40.0491742  36.1109855  24.2037374  41.3673903
  36.7101934  23.9849786  40.3144322  36.7194280  24.7165737  42.4275047
  36.3679364  24.7692128  43.2104203  38.0742659  25.2482349  42.3467361
  38.2127266  25.6266357  41.4642643  38.2563592  26.3670599  43.3753991
  39.1607521  26.7118055  43.3102457  37.6190489  27.0745947  43.1884042
  38.1016558  26.0077854  44.2632892  39.1322038  24.1619252  42.5656047
  38.8481214  23.0574389  43.0346828  40.3745583  24.4980375  42.2144768
  40.5655555  25.2198431  41.7873588  41.5542625  23.6835315  42.5118165
  41.2838347  22.8720436  42.9710728  42.2919974  23.2943992  41.2144406
  41.6652429  22.8603798  40.6135271  42.6464714  24.0969554  40.8007635
  43.4487418  22.3393945  41.4546229  44.0559116  22.3793530  42.5457032
  43.7616606  21.5517018  40.5357611  42.4296389  24.5087978  43.4484694
  43.3018992  25.2606596  43.0109495  42.1823926  24.3800753  44.7529547
  41.6216579  23.8262449  45.0978931  42.8892465  25.2157534  45.7159281
  42.7108620  26.1481179  45.5178563  42.3818898  24.9249043  47.1274627
  42.4858365  23.9765189  47.3001308  42.9227264  25.4287714  47.7568963
  40.9269930  25.2804152  47.3924916  40.3667658  24.8145374  46.7520665
  40.5428743  24.8123834  48.7790323  39.6138799  25.0413244  48.9430819
  40.6611194  23.8513164  48.8315141  41.1114301  25.2527057  49.4294350
  40.6877527  26.7762515  47.2282601  39.7525305  26.9663773  47.4034274
  41.2473819  27.2554733  47.8583614  40.9141813  27.0339797  46.3215852
  44.3932744  24.9993364  45.6451773  45.1723915  25.9496626  45.7837080
  44.8236806  23.7461723  45.4667897  44.3168683  23.0642923  45.3337106
  46.2513491  23.4484230  45.4881927  46.6252275  23.7673650  46.3243547
  46.4708622  21.9372806  45.4225230  47.4243898  21.7557208  45.4377278
  46.0431398  21.5222102  46.1885342  46.0823814  21.5966835  44.6024180
  46.9937292  24.1401923  44.3539123  48.1737733  24.4791240  44.5022036
  46.3318045  24.3533821  43.2177667  45.4974692  24.1766897  43.1049424
  46.9805642  24.9179869  42.0405865  47.9395998  24.8067956  42.1287978
  46.5311801  24.1635918  40.7851472  45.5616407  24.1365372  40.7662450
  46.8623246  24.6320629  40.0027021  47.0337022  22.7364564  40.7163510
  46.7576558  22.2641709  41.5176018  46.6605092  22.3060212  39.9316068
  48.5507761  22.6540458  40.6208397  49.1640501  23.5628924  40.0155225
  49.1269370  21.6857891  41.1576586  46.7002689  26.4001996  41.8445606
  47.4303669  27.0555069  41.0924852  45.6735590  26.9381141  42.4984878
  45.1909978  26.5166102  43.0728005  45.2685478  28.3300927  42.2903063
  44.9406083  28.4229705  41.3824498  44.0951936  28.6059189  43.2356389
  43.4976474  27.8423672  43.2063436  44.4468812  28.7024439  44.1339238
  43.2689685  29.8227918  42.9528060  43.6381353  30.9588900  42.2922225
  44.4803732  31.1158628  41.9310081  42.5836231  31.8466176  42.2538182
  42.5960003  32.6267105  41.8914650  41.5113986  31.2769409  42.8948175
  40.2334062  31.7721035  43.1228160  39.9789986  32.6121205  42.8150154
  39.3540295  30.9635737  43.7971757  38.4901421  31.2683115  43.9574954
  39.7256564  29.6916610  44.2501442  39.1074417  29.1706475  44.7103783
  40.9957938  29.2016897  44.0304733  41.2393991  28.3592056  44.3400697
  41.9158862  30.0050610  43.3466997  46.4112540  29.3241382  42.4658321
  46.5733942  30.1898772  41.5917752  47.2187009  29.2787565  43.5434907
  47.1163231  28.4551729  44.7647829  47.5441641  27.5948081  44.6311508
  46.1888538  28.3554860  45.0294626  47.8707592  29.2667310  45.7837131
  48.2482558  28.6937060  46.4703598  47.3004354  29.9463098  46.1750817
  48.9657114  29.9108523  45.0058252  49.7105720  29.3007212  44.8893874
  49.2556266  30.7307687  45.4354707  48.3420427  30.2350122  43.6374877
  48.0044003  31.1450136  43.6501760  49.3528524  30.0939117  42.5109224
  49.9035912  31.1021794  42.0485836  49.6235306  28.8658243  42.0610406
  49.2993882  28.1392062  42.3856199  50.5331625  28.6774699  40.9341806
  51.3679104  29.1327380  41.1231460  50.8371900  27.1900716  40.7396136
  50.0089135  26.7083852  40.5900333  51.7396144  26.9783429  39.5339456
  51.9255980  26.0338319  39.4202486  51.3055642  27.3132649  38.7329589
  52.5771751  27.4516860  39.6594178  51.4895185  26.6646166  41.9019004
  50.9938689  26.7562181  42.5745010  49.9499536  29.2729375  39.6573917
  50.6763462  29.8694563  38.8540505  48.6454510  29.1020889  39.4407472
  48.1147854  28.6580617  39.9520229  48.0108093  29.6849357  38.2665711
  48.4881618  29.3931077  37.4744525  46.5732020  29.1795746  38.1595646
  46.0874760  29.4172300  38.9655473  46.1501764  29.5717250  37.3798938
  46.5968518  27.7748905  38.0242231  45.8137068  27.4787346  37.9649900
  48.0659869  31.2059747  38.3109084  48.3063116  31.8560113  37.2850568
  47.9014138  31.7922483  39.4995883  47.7112852  31.3806677  40.2311610
  48.0435431  33.2373985  39.6302638  47.4455864  33.6698465  38.9997010
  47.6393709  33.6855849  41.0473166  48.0482846  33.0866821  41.6902677
  48.1272690  35.1228264  41.3325542  47.8579686  35.3749529  42.2290717
  49.0939704  35.1472339  41.2572442  47.7294108  35.7255161  40.6844616
  46.1178622  33.6034826  41.2025343  45.7113816  34.2794085  40.6382695
  45.8243872  32.7227619  40.9201952  45.6198815  33.8236981  42.6158157
  44.6521299  33.7549991  42.6239605  46.0047769  33.1476755  43.1954449
  45.8917148  34.7070348  42.9118950  49.4646064  33.6620224  39.2896178
  49.6826021  34.7038688  38.6560320  50.4549817  32.8689119  39.7086901
  50.3498447  32.1535877  40.1750510  51.8446973  33.1870892  39.3840583
  52.0569586  34.0685556  39.7301844  52.7998990  32.1801882  40.0278758
  52.5073395  31.2857349  39.7939885  53.6902332  32.3322341  39.6752329
  52.8916101  32.2484258  41.5319495  53.2736649  33.1018539  41.7884092
  52.0023836  32.1529000  41.9087637  53.7687411  31.1458945  42.1043399
  54.2686185  30.3120974  41.3162409  53.9602887  31.1129744  43.3399498
  52.0600838  33.2068741  37.8802654  52.7929480  34.0558281  37.3640889
  51.4409483  32.2697804  37.1586037  50.9505806  31.6416217  37.4822396
  51.5661236  32.2608654  35.7042098  52.5059938  32.2033435  35.4702157
  50.8615699  31.0386545  35.1194640  49.9765294  30.9716609  35.5105396
  50.7892334  31.1499670  34.1590219  51.5826876  29.7259819  35.3801648
  52.5358681  29.8564658  35.2589964  51.3972007  29.4344112  36.2861538
  51.1281952  28.6324799  34.4266516  50.1585616  28.6070757  34.3994267
  51.4889058  28.8015370  33.5426875  51.6130236  27.3371589  34.8852319
  52.3784456  27.0717207  34.5975659  50.9531411  26.5371170  35.7188344
  49.7542738  26.8805421  36.1825889  49.4009035  27.6293467  35.9493785
  49.3351717  26.3555016  36.7190718  51.4985642  25.3862230  36.0871367
  52.2713776  25.1605159  35.7849169  51.0740187  24.8598303  36.6190876
  51.0084791  33.5428703  35.0916994  51.5793103  34.0777250  34.1365914
  49.8968698  34.0494574  35.6279123  49.4494954  33.6856015  36.2658849
  49.3435633  35.3130285  35.1414629  49.1597806  35.2324314  34.1925298
  48.0154129  35.6282567  35.8562947  48.1814867  35.6501245  36.8118057
  47.4904569  36.9972250  35.4279115  46.6555018  37.1734196  35.8897118
  48.1459407  37.6727273  35.6596928  47.3439790  36.9930123  34.4691913
  46.9825134  34.5391170  35.5741594  46.7494419  34.5659718  34.6333935
  47.3698306  33.6770249  35.7924518  45.7050325  34.6876303  36.3714275
  45.1027726  33.9640549  36.1381624  45.9177917  34.6510567  37.3169845
  45.2961765  35.5401880  36.1558138  50.3589429  36.4327409  35.3318138
  50.6927683  37.1631473  34.3907697  50.8790942  36.5692606  36.5533268
  50.6749899  36.0790681  37.2298190  51.8691479  37.6036473  36.8366247
  51.4669331  38.4745399  36.6945006  52.3022891  37.5145151  38.3005824
  51.5556513  37.7812722  38.8600837  52.5434758  36.5953410  38.4969543
  53.5035209  38.4004422  38.6746080  53.7790049  38.1920981  39.5810689
  54.2311411  38.2197889  38.0588619  53.1946999  39.8855214  38.6099596
  52.1140410  40.3238114  38.9996304  54.1559013  40.6722051  38.1271526
  54.8998363  40.3301871  37.8656371  54.0291638  41.5208003  38.0712086
  53.0809306  37.4868962  35.9216794  53.6046018  38.5018731  35.4443962
  53.5583224  36.2620591  35.6806107  53.2189594  35.5315130  35.9800721
  54.7472187  36.0920550  34.8505261  55.4417335  36.6900698  35.1688710
  55.2732545  34.6611305  34.9580584  54.5570290  34.0496701  34.7245243
  56.0086756  34.5544437  34.3338216  55.7807390  34.2711048  36.3355571
  56.5442505  34.8251130  36.5607683  55.0707461  34.4026432  36.9831779
  56.2173078  32.8134308  36.4027519  56.1386452  32.0929059  35.4108053
  56.6785753  32.3816856  37.5785739  56.9814130  31.4228356  37.6769867
  56.7231689  33.0146819  38.3639484  54.4691086  36.4298635  33.3944735
  55.3725517  36.8805117  32.6805969  53.2358678  36.2219852  32.9324975
  52.5761777  35.9477271  33.4104100  52.9056424  36.4538887  31.5353357
  53.6846900  36.2617575  30.9909862  51.7825439  35.5009254  31.1082035
  51.8446952  34.6903794  31.6381368  50.9289943  35.9329979  31.2684233
  51.8304062  35.1070676  29.6655850  51.1921192  35.8238215  28.6751630
  50.7318225  36.5390528  28.7984068  51.4053114  35.2435981  27.5065973
  51.0809142  35.5378516  26.6862124  52.1534060  34.1742513  27.7042206
  52.4317997  34.0632598  29.0459228  52.9411199  33.3997968  29.4507300
  52.4812318  37.8920728  31.2572349  52.7248746  38.3886004  30.1540466
  51.8481096  38.5703403  32.2279520  51.7069195  38.2586997  33.0169966
  51.3290818  39.9309812  32.0292654  51.6295541  40.2587775  31.1680877
  49.8045812  39.9139231  32.0186267  49.4841307  39.5642399  32.8648768
  49.4767126  40.8168200  31.8848910  49.2578051  39.0471389  30.9150244
  49.4447324  39.3900834  29.5837711  49.9101320  40.1670339  29.3728276
  48.9594286  38.5867745  28.5612678  49.0870508  38.8282011  27.6726646
  48.2719469  37.4365353  28.8780511  47.7792702  36.6339991  27.8774120
  47.9678599  36.9620992  27.1271406  48.0749082  37.0767374  30.1938213
  47.6134598  36.2967787  30.4026818  48.5745208  37.8849861  31.2056075
  48.4415021  37.6413822  32.0938401  51.8424442  40.8908046  33.0997886
  51.0647934  41.5852348  33.7595841  53.1630450  40.9777777  33.2779916
  54.2324601  40.3263048  32.4994138  54.1045789  40.4854710  31.5512522
  54.2681713  39.3787144  32.7004068  55.4862777  41.0160053  32.9853271
  55.6996900  41.7728696  32.4171190  56.2283161  40.3919706  33.0132317
  55.1871269  41.4982502  34.3675734  55.7088227  42.2882840  34.5767198
  55.3438185  40.7970281  35.0183223  53.6960386  41.8534277  34.3359273
  53.2964447  41.6304424  35.1908941  53.4893667  43.3274057  34.0552504
  53.6502173  44.1491799  34.9690197  53.1521323  43.6853763  32.8208615
  53.0363819  43.1249749  32.1782900  52.9414433  45.0675086  32.4232520
  53.5247680  45.6352836  32.9516929  53.3181413  45.2542400  30.9464118
  53.3618072  46.2044514  30.7587376  54.1878742  44.8535328  30.7979956
  52.3448909  44.6304324  29.9383509  51.4427817  44.7051464  30.2877900
  52.4142335  45.1107603  29.0992212  52.6147027  43.1644352  29.6575790
  53.1902944  42.4757766  30.5216326  52.2515179  42.7009768  28.5568992
  51.5132252  45.5410187  32.6400062  51.2151693  46.6951496  32.3257775
  50.6205308  44.6826440  33.1373798  50.7985156  43.8820513  33.3954685
  49.2238607  45.0681843  33.2793807  48.8839013  45.3518404  32.4159782
  48.3847367  43.8807915  33.7505570  47.4606063  44.1626485  33.8378133
  48.4534910  43.1665876  33.0977480  48.7213424  43.5781871  34.6095193
  49.0820624  46.2347391  34.2512450  49.7327808  46.2832310  35.3002693
  48.2353865  47.1930286  33.8777182  47.7813374  47.1722880  33.1477332
  47.9898500  48.3865007  34.6801900  48.6496743  48.4275395  35.3895225
  48.1479847  49.6420741  33.8164338  47.6637658  49.5138521  32.9861765
  47.7821915  50.4010859  34.2976556  49.5824511  49.9615426  33.4720867
  50.0167436  49.1608488  33.1368219  49.6017495  50.6585425  32.7983229
  50.3544521  50.4484311  34.6802023  50.1781366  51.5808023  35.1251756
  51.2013560  49.5867494  35.2329269  51.2958547  48.8003612  34.8964146
  51.6607881  49.8169403  35.9221985  46.6142112  48.4079178  35.3221599
  46.4504526  49.0115952  36.3859581  45.6341037  47.7527753  34.7059103
  45.7544496  47.2755567  34.0007435  44.2454932  47.7689039  35.1523302
  44.1824203  48.1674049  36.0337250  43.3881305  48.5761977  34.1729692
  43.9191371  49.3126847  33.8299824  43.1241942  47.9964221  33.4410020
  42.1422801  49.1534690  34.7672517  42.1443229  50.4247451  35.3148883
  42.9333170  50.9175953  35.3287104  40.9875205  50.9676883  35.8530544
  41.0026287  51.8200160  36.2244708  39.8185827  50.2451726  35.8376425
  39.0416718  50.6069795  36.1986166  39.8000655  48.9844280  35.2872343
  39.0101518  48.4938691  35.2760397  40.9601434  48.4439752  34.7488040
  40.9414501  47.5905500  34.3793734  43.7756788  46.3250932  35.2224401
  43.7653888  45.6318517  34.1998046  43.3895032  45.8666477  36.4126523
  43.3151350  46.3535858  37.1170632  43.0511241  44.4615902  36.6266544
  43.1529855  43.9795024  35.7902450  43.9675861  43.8024308  37.6722080
  43.8575605  44.2554366  38.5231288  43.5931019  42.3414085  37.8611031
  44.1831509  41.9484228  38.5233707  42.6733514  42.2877890  38.1636669
  43.6915528  41.8787514  37.0141669  45.4372836  43.9320983  37.2472921
  45.9973883  43.5116219  37.9188659  45.5582176  43.4923549  36.3916685
  45.6614279  44.8731237  37.1703797  41.5915932  44.3731172  37.0473681
  41.1902203  45.0110704  38.0319794  40.8194543  43.5998517  36.2986458
  41.1110497  43.1438475  35.6303515  39.3854975  43.4342372  36.5249858
  39.0672552  44.1276841  37.1253175  38.5820925  43.5072751  35.2206297
  38.7159193  42.6762086  34.7385593  37.0925283  43.6384547  35.5302410
  36.6000982  43.6832531  34.6961764  36.8080556  42.8651300  36.0426415
  36.9481478  44.4483201  36.0449937  39.0611506  44.6503395  34.3302105
  40.0057913  44.5277276  34.1474174  38.5619704  44.6275127  33.4979521
  38.8885173  45.9845028  34.9175263  39.2150888  46.6502800  34.2917669
  37.9458439  46.1324979  35.0952376  39.3917859  46.0323997  35.7453377
  39.1676256  42.0768015  37.1868273  39.5836199  41.0563723  36.6200382
  38.5033699  42.0145572  38.3311476  38.1754848  43.1067019  39.2658521
  37.5965133  43.7572198  38.8369179  38.9858971  43.5185361  39.6029197
  37.4360138  42.3950830  40.3853497  36.4792008  42.4058611  40.2260170
  37.6462270  42.7958573  41.2431954  37.9387809  40.9883799  40.3494391
  37.3000989  40.3775609  40.7502838  38.8085480  40.9158904  40.7707483
  38.0544661  40.7199900  38.8523520  38.7047012  40.0204149  38.6803195
  36.6952108  40.3520412  38.2677841  35.9856308  41.1816673  37.7035442
  36.3203552  39.0855687  38.4577731  36.7972040  38.4785247  38.8366474
  35.0086044  38.6436596  38.0072320  34.9193368  38.8206511  37.0585633
  34.9269612  37.6875032  38.1487394  33.8624690  39.3305622  38.7288208
  32.7641293  39.4671640  38.1750233  34.1087758  39.7926038  39.9530988
  34.8905662  39.7782786  40.3126827  33.0922132  40.3737270  40.8259873
  32.3665194  40.7342792  40.2921936  32.5236410  39.3220256  41.7896050
  33.2309102  39.0342965  42.3877908  31.8052084  39.7249253  42.3015283
  31.9750622  38.1054176  41.1133690  30.6674129  38.0080843  40.6914574
  30.0746780  38.6261805  40.7666605  30.4718778  36.8236114  40.1415956
  29.6710424  36.5179276  39.7807713  31.5985202  36.1383546  40.2121225
  32.5577244  36.9200669  40.8046840  33.4404821  36.6783892  40.9731384
  33.7320496  41.5034993  41.6144579  34.6819216  41.2638314  42.3614489
  33.2214122  42.7161523  41.4533771  32.6316155  42.9206849  40.8611548
  33.6283262  43.8187697  42.2852382  32.8446522  44.3265531  42.5454693
  34.0468848  43.4731546  43.0886054  34.6041498  44.7665435  41.6172119
  34.7606146  44.8058067  40.3955020  35.3009675  45.5323177  42.4705554
  35.3571167  45.3736310  43.3136490  36.0400820  46.7221558  42.0543439
  35.5057683  47.2289901  41.4226716  36.3408730  47.6143898  43.2551708
  36.8689706  47.0990191  43.8844998  36.8658271  48.3676481  42.9422521
  35.1629285  48.1856607  44.0291664  34.6288660  47.4606657  44.3896058
  35.7188297  48.9991365  45.1862566  34.9803098  49.3728541  45.6926207
  36.2489810  48.4179365  45.7542075  36.2724451  49.7120579  44.8332947
  34.2820399  49.0354284  43.1320276  33.5428326  49.3843658  43.6536715
  34.8096798  49.7675753  42.7745209  33.9462256  48.4851169  42.4074374
  37.3595380  46.3503148  41.3831745  38.1089219  45.5165421  41.9021655
  37.6946151  46.9852488  40.2616990  36.8796941  47.8991855  39.4435832
  37.0004661  48.8168978  39.7352120  35.9468020  47.6362419  39.4647226
  37.4494449  47.7037147  38.0783721  37.3322494  48.5010294  37.5399499
  37.0446918  46.9352674  37.6450931  38.9090457  47.4498032  38.2919405
  39.4016300  48.2858033  38.3122786  39.2583168  46.8637995  37.6015412
  39.0113688  46.7590185  39.6540376  39.1726002  45.8106030  39.5297537
  40.1285500  47.3663041  40.4928238  39.9136840  48.1679517  41.4075756
  41.3495285  46.9729084  40.1652568  41.5236944  46.3865571  39.5603970
  42.5246847  47.5174541  40.8172046  42.4068172  48.4672669  40.9737161
  42.6677601  47.0728675  41.6667846  43.7391387  47.3108178  39.9435210
  43.6485911  47.3653511  38.7103327  44.8859135  47.0931848  40.5837940
  44.9643884  47.1108322  41.4392519  46.1237512  46.8027941  39.8994206
  46.0229492  46.9855298  38.9527424  46.8292922  47.3688714  40.2502374
  46.5393074  45.3539590  40.0695346  45.7620757  44.4941572  40.4860173
  47.8033995  45.0876936  39.7299216  48.3653303  45.6591149  39.4180155
  48.3231293  43.7343326  39.8810213  47.7354774  43.1249515  39.4063783
  49.7133918  43.6145759  39.2503856  50.2020531  44.4346562  39.4240506
  50.1752336  42.8675880  39.6607954  49.7184901  43.3865290  37.7315503
  49.1713563  44.0693546  37.3129876  51.1271440  43.5073434  37.1628279
  51.0942598  43.3578426  36.2050121  51.4670435  44.3957393  37.3473976
  51.6948312  42.8409438  37.5822524  49.1225458  42.0279940  37.3672603
  49.1440761  41.9234518  36.4026042  49.6479219  41.3302640  37.7881603
  48.2065841  41.9897295  37.6836397  48.3659604  43.2852504  41.3342535
  48.5378777  42.0876449  41.5901040  48.2044681  44.2029648  42.2901601
  48.1476470  45.0495410  42.1508396  48.1077796  43.8169008  43.6940264
  48.8991222  43.3111013  43.9336986  48.0605172  45.0658740  44.5860023
  47.9246345  44.7912951  45.5063340  48.8999029  45.5452830  44.5035903
  46.9361526  46.0201543  44.2104981  46.2250203  45.7608182  43.2183939
  46.7649009  47.0402779  44.9092683  46.8941656  42.9364593  43.9563581
  46.8542929  42.2302233  44.9731226  45.8989415  42.9593892  43.0681373
  45.8461449  43.4849265  42.3900267  44.7850445  42.0304496  43.2238414
  44.3801444  42.1683045  44.0949091  43.7099087  42.2683245  42.1635921
  44.1414681  42.2194694  41.2961731  43.0673077  41.5444372  42.2335076
  42.9016231  43.5708776  42.1765414  43.4223154  44.2647493  41.7430364
  41.6190406  43.3984163  41.3912450  41.1228463  44.2317674  41.4107146
  41.8390209  43.1657341  40.4753511  41.0938017  42.6909511  41.7954320
  42.5853014  44.0407615  43.5738329  42.0754019  44.8643781  43.5208773
  42.0657953  43.3577557  44.0260602  43.4163102  44.1956499  44.0493189
  45.2651925  40.5876957  43.1543642  44.6382122  39.6984522  43.7442588
  46.3522330  40.3282207  42.4172708  46.7912998  40.9098734  41.9617168
  46.8801754  38.9692113  42.3443937  46.1551280  38.3660587  42.1176532
  47.9380150  38.8613967  41.2440821  48.4298431  39.6962661  41.2065310
  48.5433203  38.1376966  41.4686053  47.3926622  38.5868285  39.8433668
  46.9304245  37.7338889  39.8503258  46.3936802  39.6518936  39.4170401
  46.0706879  39.4425408  38.5263362  45.6526324  39.6586424  40.0438723
  46.8340755  40.5161373  39.4161743  48.5569057  38.4796471  38.8493933
  48.2008210  38.3059455  37.9639706  49.0505466  39.3149884  38.8501239
  49.1379304  37.7524035  39.1217902  47.4479120  38.5271703  43.6871059
  47.2061744  37.3970730  44.1217895  48.2093475  39.4026460  44.3581717
  48.4443377  40.1763508  44.0648450  48.7114736  39.0799461  45.6906867
  49.1857219  38.2349913  45.6569090  49.6882136  40.1580731  46.1644801
  50.4415250  40.1851476  45.5543088  49.2318769  41.0145107  46.1614024
  50.2362319  39.9270844  47.5716138  50.7423919  40.7060340  47.8508300
  49.5001033  39.7678180  48.1820520  51.1613827  38.7158486  47.6086114
  50.6935703  37.9478957  47.2460733  51.9526052  38.9041382  47.0804429
  51.6068287  38.3745957  49.0173901  51.5895031  39.1762530  49.5651231
  51.0165801  37.6989029  49.3882417  52.9949593  37.8376976  49.0120051
  53.2476435  37.6396027  49.8421763  53.0333996  37.0995640  48.5148381
  53.5540450  38.4428095  48.6758123  47.5677209  38.9412644  46.6839772
  47.5661259  38.0333390  47.5269452  46.5931500  39.8464809  46.6092064
  46.5922354  40.5210668  46.0754106  45.4167964  39.7504097  47.4599223
  45.6818064  39.8685444  48.3843799  44.4184581  40.8484764  47.1028522
  44.7957163  41.7099370  47.3414942  44.2381034  40.8160062  46.1504469
  43.1237499  40.6952225  47.8246173  42.9973820  40.9349314  49.1762799
  41.7538103  40.6856736  49.5475277  41.4128014  40.7820106  50.4067559
  41.0796644  40.2667748  48.4902028  40.2493037  40.0458085  48.4824595
  41.9174271  40.2566668  47.4031055  41.6932684  40.0073454  46.5357989
  44.7385939  38.3924592  47.3266523  44.3966079  37.7530867  48.3319788
  44.5025503  37.9578492  46.0831863  44.7313026  38.3761468  45.3676477
  43.8127050  36.6909502  45.8462676  42.9644283  36.7040355  46.3162469
  43.5207003  36.4984379  44.3515387  44.3539454  36.3981789  43.8651647
  42.6738445  35.2527022  44.1314073  42.4927371  35.1379401  43.1850413
  43.1437203  34.4703803  44.4597443  41.8311044  35.3368221  44.6053166
  42.7965187  37.6313024  43.8454309  43.2500249  38.3310724  43.9480567
  44.6287661  35.5247922  46.3865469  44.0696909  34.5899223  46.9680675
  45.9483960  35.5655756  46.2081190  46.3696661  36.1803195  45.7795138
  46.7968007  34.5143101  46.7600007  46.5197117  33.6597030  46.3932604
  48.2608545  34.7484839  46.3645224  48.5485344  35.6167419  46.6884318
  49.1744727  33.6797035  46.9655409  50.0939952  33.8448440  46.7045581
  49.1136416  33.6973614  47.9335991  48.9096211  32.8018623  46.6488447
  48.3846485  34.7062293  44.9345327  47.9064057  35.3031545  44.5868299
  46.6437452  34.4475265  48.2717917  46.5203846  33.3581161  48.8429687
  46.6376445  35.6076761  48.9351805  46.7242772  36.3822574  48.5708939
  46.4747968  35.6334783  50.3883029  47.2080766  35.1494027  50.7980303
  46.4993267  37.0719459  50.9133269  45.8762585  37.6056617  50.3961273
  46.2349863  37.0693457  51.8472302  47.8674676  37.7262126  50.8170687
  48.8781440  37.0691027  50.5895408  47.8978828  39.0399125  51.0072906
  48.6459249  39.4627099  50.9658721  47.1701416  39.4683444  51.1675273
  45.1734661  34.9601502  50.8001131  45.1428861  34.1643463  51.7463847
  44.0794795  35.2816894  50.1055917  44.0714997  35.7860844  49.4090840
  42.7653759  34.7766759  50.4997365  42.6541101  34.9063154  51.4552456
  41.6535417  35.5652400  49.7848399  41.7915353  35.5165001  48.8256053
  40.3004720  34.9675029  50.1012033  39.6143348  35.4771549  49.6426659
  40.2846322  34.0457251  49.8003713  40.1554083  35.0053975  51.0598093
  41.6850713  37.0388106  50.2013983  40.9762379  37.5131790  49.7382841
  41.5508160  37.0986180  51.1599016  42.5462132  37.4164446  49.9630262
  42.6534990  33.2852230  50.2167954  42.0785565  32.5273363  51.0094939
  43.1628364  32.8478094  49.0695910  43.5597379  33.3427014  48.4884516
  43.0803463  31.4367484  48.7013296  42.1582840  31.1464475  48.7767580
  43.5161697  31.2490016  47.2360747  44.3593513  31.7074277  47.0975528
  43.7267407  29.7701821  46.9137803  43.9991631  29.6854075  45.9869711
  44.4165630  29.4145433  47.4958140  42.8938552  29.2937505  47.0594290
  42.4850946  31.8740099  46.3061608  42.7718209  31.7476757  45.3882508
  41.6294744  31.4411775  46.4484566  42.4149681  32.8205060  46.5047293
  43.9160973  30.5878497  49.6488950  43.4958177  29.5037680  50.0601199
  45.1066410  31.0604376  50.0138928  45.4508945  31.7991341  49.7383406
  45.9350104  30.3090856  50.9491640  46.0315131  29.4013650  50.6217321
  47.3316426  30.9293925  51.0260791  47.2458550  31.8888828  51.1416122
  47.8064920  30.5458785  51.7802018  48.1582925  30.6773069  49.7685694
  48.1360842  29.7300859  49.5615303  47.7808199  31.1866654  49.0346938
  49.6083696  31.0880835  49.9258877  49.6630423  32.0526505  50.0062336
  49.9807347  30.6617670  50.7130545  50.4291452  30.6592994  48.7127078
  50.3071188  29.7077230  48.5708175  50.1233613  31.1517151  47.9357316
  51.8889506  30.9170865  48.8770673  52.1997522  30.4697239  49.5807356
  52.3280826  30.6534484  48.1493654  52.0311304  31.7868539  49.0010656
  45.2878324  30.2406505  52.3263620  45.3806163  29.2143330  53.0114157
  44.6422987  31.3283085  52.7591290  44.6037250  32.0781819  52.3394541
  43.9314157  31.3056355  54.0314962  44.5489601  31.0427919  54.7322352
  43.4017440  32.7005997  54.3688904  42.9334043  32.6633222  55.2174836
  44.1496814  33.3155549  54.4304590  42.7952926  32.9861257  53.6674771
  42.7956732  30.2897621  54.0015143  42.6150929  29.5235669  54.9531921
  42.0340951  30.2490102  52.9076989  42.1131383  30.7700232  52.2279198
  40.9685381  29.2586080  52.8069978  40.3975425  29.3270476  53.5876009
  40.1124327  29.5143119  51.5719006  39.8358432  30.4445443  51.5670029
  40.6370571  29.3216971  50.7794552  38.8812903  28.6680915  51.5268959
  37.7439190  28.9738981  52.2470721  36.8309035  28.0428584  52.0345803
  35.9759096  28.0268714  52.4008259  37.3376504  27.1400370  51.2146936
  36.9291013  26.4391353  50.9282212  38.6198518  27.5040153  50.8859423
  39.1982938  27.0418327  50.3241977  41.5403611  27.8482483  52.7638131
  40.9688284  26.9163014  53.3395660  42.6674523  27.6751756  52.0772825
  43.0653242  28.2893510  51.6257599  43.3283178  26.3789370  52.0449054
  42.7631221  25.7446327  51.5758800  44.6480615  26.4931943  51.2848457
  45.1414595  27.2631311  51.6085580  45.5096941  25.2456058  51.4862116
  46.3426021  25.3358465  50.9972444  45.7086266  25.1289492  52.4290218
  45.0376477  24.4614502  51.1644846  44.3714577  26.6545358  49.8911082
  43.9172956  27.3498815  49.7666688  43.5688968  25.8519791  53.4480159
  43.4144882  24.6567019  53.7036961  43.9480964  26.7350945  54.3729190
  43.9953163  27.5828464  54.2362587  44.3215595  26.3388939  55.7225943
  44.6375375  25.4215583  55.7014877  45.4732676  27.2167423  56.2202975
  45.2271664  28.1494376  56.1131726  45.6359834  27.0224926  57.1560616
  46.7668716  26.9844748  55.4617498  46.9354484  25.9806831  54.7626438
  47.7019961  27.9150837  55.6111861  48.4568717  27.8353791  55.2061922
  47.5513002  28.6008391  56.1078886  43.1621310  26.4078220  56.7146953
  43.3893203  26.2808404  57.9218783  41.9380104  26.6067977  56.2417350
  41.7539736  26.6956677  55.4071515  40.7631383  26.6946980  57.1152166
  40.8407411  27.4856236  57.6712819  39.4965953  26.8292955  56.2702324
  38.7510661  27.0547942  56.8482140  39.6281972  27.5243490  55.6077881
  39.1562004  25.5413845  55.5421764  39.9533891  25.2088958  55.0995552
  38.8383171  24.8886125  56.1862765  38.0817133  25.7259238  54.4944132
  37.2909798  26.1099306  54.9046426  38.4129815  26.3014773  53.7879901
  37.7220033  24.4384158  53.9130021  36.9772312  24.0825681  54.1529352
  38.4607770  23.7912093  53.0157356  39.6073383  24.3130717  52.5958286
  39.8728041  25.0709029  52.9016974  40.0839374  23.8929119  52.0154536
  38.0561087  22.6181606  52.5433190  37.3131270  22.2792805  52.8139913
  38.5326670  22.2004385  51.9627070  40.6213479  25.4814643  58.0318805
  41.1767901  24.4164688  57.7632291  39.8495043  25.6434485  59.1043713
  39.3979792  26.5318127  59.2726603  39.6282085  24.5747434  60.0570821
  39.1686535  23.7261555  59.5515795  40.9418510  24.1151453  60.6820908
  41.6097896  23.7528636  59.9005186  41.4098220  24.9527480  61.1997382
  40.6842399  23.0631632  61.6147383  41.5110870  22.7739056  62.0079685
  38.7098703  25.0258696  61.1835189  38.2599911  26.1695528  61.2012805
  38.4065938  24.2520292  62.0888553  32.5804725  30.8688954  38.6723838
  32.2202241  34.2664670  39.3588213  31.4738685  32.3529726  39.0296529
  30.4705086  32.2593666  38.6908255  30.1069361  33.4586104  46.6545005
  28.1002093  31.3974132  40.5523318  27.9907561  32.2888780  41.7735097
  26.7676524  32.4588867  42.4028460  26.6666805  33.2795908  43.5277120
  27.7859998  33.9363729  44.0230386  29.0123976  33.7650796  43.3883638
  29.1217788  32.9496110  42.2694872  30.3910793  32.9585417  41.8481306
  31.1262611  33.7258168  42.6386175  30.3253824  34.2630692  43.6560841
  30.6862509  35.2553076  44.7275517  30.6004143  35.0157713  46.0839331
  30.9226220  36.0042750  46.9928911  31.3149902  37.2564806  46.5562043
  31.3865861  37.5186431  45.1987034  31.0600394  36.5180828  44.2888456
  32.6036882  33.9300696  42.4562141  33.3589773  34.1734870  43.4331272
  33.0929162  33.7962504  41.3211359  29.0228030  31.4093376  40.2212823
  27.4981998  31.7271244  39.8531415  27.8507750  30.4814075  40.7938146
  25.9763049  32.0021187  42.0602572  25.8003439  33.4039965  43.9601334
  27.7103915  34.5203326  44.8014919  30.7104253  32.4804375  41.1376522
  30.8733993  35.8176443  47.9505879  31.5453384  37.9507623  47.2016776
  31.6661506  38.3979430  44.8825556  31.1111235  36.7014682  43.3312052
  37.0411571  53.1801075  13.4114071  26.0411571  54.1801075  39.4114071
  25.0411571  29.1801075  39.4114071  -0.9588429  47.1801075  13.4114071
   0.0411571  23.1801075  29.4114071  12.0411571  32.1801075  68.4114071
  53.0411571  19.1801075   1.4114071  44.0411571  77.1801075  43.4114071
  12.0411571   9.1801075  55.4114071  72.0411571  41.1801075   9.4114071
  -0.9588429  46.1801075  40.4114071  48.0411571  26.1801075  79.4114071
  23.0025518  26.7412450  36.9732139  23.8737699  26.3547902  36.8867223
  23.0624908  27.2966317  37.7509554  48.5470815  47.6222301  46.2971000
  49.4182996  47.2357752  46.2106084  48.6070205  48.1776167  47.0748415
  45.5597289  48.8724068  45.7281275  46.4309470  48.4859519  45.6416359
  45.6196679  49.4277934  46.5058690  29.0265307  23.4904392  39.5816973
  29.8977487  23.1039844  39.4952058  29.0864697  24.0458259  40.3594389
  19.8272992  26.7295325  26.2968622  20.6985172  26.3430776  26.2103707
  19.8872382  27.2849192  27.0746038  23.2377181  28.9747371  32.0844032
  24.1089361  28.5882822  31.9979116  23.2976571  29.5301238  32.8621447
  35.4672207  32.0872658  43.9169196  36.3384387  31.7008110  43.8304281
  35.5271597  32.6426525  44.6946612  16.8880605  35.7831993  16.4623708
  17.7592785  35.3967444  16.3758792  16.9479995  36.3385860  17.2401123
  52.4603288  40.2270676  28.0380280  53.3315468  39.8406128  27.9515365
  52.5202678  40.7824543  28.8157696  21.6111935  43.8093016  37.3931315
  22.4824115  43.4228468  37.3066400  21.6711325  44.3646883  38.1708731
  23.0582626  19.9407618  29.5143205  23.9294806  19.5543070  29.4278290
  23.1182016  20.4961485  30.2920621  34.2445330  21.8634778  21.7263974
  35.1157510  21.4770229  21.6399059  34.3044719  22.4188644  22.5041390
  24.9695467  47.7719509  19.7242897  25.8407647  47.3854960  19.6377982
  25.0294856  48.3273376  20.5020313  48.2699530  27.5178091  22.0904929
  49.1411710  27.1313542  22.0040014  48.3298920  28.0731958  22.8682345
  49.9523823  34.7211454  50.4578435  50.8236003  34.3346905  50.3713519
  50.0123213  35.2765320  51.2355850  20.1148809  33.3299641  27.3969537
  20.9860990  32.9435093  27.3104622  20.1748199  33.8853508  28.1746953
  19.1795724  45.7529227  22.2507942  20.0507905  45.3664679  22.1643026
  19.2395114  46.3083094  23.0285357  52.3652951  31.6671548  45.3004673
  53.2365131  31.2806999  45.2139758  52.4252341  32.2225415  46.0782089
  49.3183649  44.4845770  51.5106888  50.1895830  44.0981221  51.4241972
  49.3783039  45.0399636  52.2884303  52.6108461  46.4326038  35.6628191
  53.4820641  46.0461490  35.5763275  52.6707851  46.9879905  36.4405606
  32.7696911  34.1925174  14.6190780  33.6409092  33.8060626  14.5325865
  32.8296301  34.7479041  15.3968196  31.2078488  43.9865576  39.7484352
  32.0790669  43.6001028  39.6619437  31.2677878  44.5419443  40.5261768
  49.7170333  26.4637607  43.8105918  50.5882513  26.0773058  43.7241003
  49.7769723  27.0191473  44.5883334  31.4873148  44.1340645  45.8987258
  32.3585328  43.7476097  45.8122343  31.5472538  44.6894512  46.6764674
  39.3347754  26.5501681  29.3322151  40.2059934  26.1637133  29.2457236
  39.3947144  27.1055548  30.1099567  28.5699842  38.7871780  34.7382711
  29.4412023  38.4007232  34.6517796  28.6299232  39.3425647  35.5160127
  50.9379631  23.5863728  38.0838985  51.8091811  23.1999180  37.9974070
  50.9979021  24.1417595  38.8616401  35.9222419  39.2440455  43.4875076
  36.7934600  38.8575906  43.4010161  35.9821809  39.7994322  44.2652492
  22.0217661  56.5249721  22.0347123  22.8929842  56.1385172  21.9482208
  22.0817051  57.0803587  22.8124539  43.0203073  30.2294193  57.4632763
  43.8915254  29.8429644  57.3767848  43.0802463  30.7848059  58.2410179
  18.0752569  34.6181081  46.7271856  18.9464750  34.2316532  46.6406940
  18.1351959  35.1734947  47.5049271  36.1886200  37.7224278  41.1634757
  37.0598380  37.3359729  41.0769842  36.2485590  38.2778144  41.9412173
  40.9666347  20.2658060  28.4064423  41.8378528  19.8793512  28.3199507
  41.0265737  20.8211927  29.1841838  28.1147979  37.7118415  14.5657916
  28.9860159  37.3253867  14.4793000  28.1747369  38.2672282  15.3435331
  20.1385064  48.8317847  32.3824392  21.0097244  48.4453298  32.2959477
  20.1984454  49.3871714  33.1601808  51.5306780  48.5123163  30.3719904
  52.4018961  48.1258615  30.2854989  51.5906170  49.0677030  31.1497320
  54.7160397  43.3557370  37.2781418  55.5872577  42.9692822  37.1916503
  54.7759787  43.9111237  38.0558834  44.3343232  45.4622900  22.0000067
  45.2055412  45.0758352  21.9135152  44.3942622  46.0176767  22.7777483
  49.5340214  23.6740231  46.6535677  50.4052394  23.2875683  46.5670762
  49.5939604  24.2294098  47.4313093  44.8077255  22.9688144  22.9766028
  45.6789435  22.5823595  22.8901113  44.8676645  23.5242010  23.7543444
  47.6255929  23.6241520  23.3046296  48.4968110  23.2376972  23.2181381
  47.6855319  24.1795387  24.0823712  29.1214398  55.0705660  40.0767804
  29.9926578  54.6841111  39.9902888  29.1813788  55.6259527  40.8545219
  33.9221951  35.7435774  48.9178886  34.7934131  35.3571226  48.8313971
  33.9821341  36.2989641  49.6956302  36.6093771  33.8777953  15.0683193
  37.4805951  33.4913404  14.9818277  36.6693161  34.4331819  15.8460608
  35.1798936  44.1097163  52.8298754  36.0511116  43.7232615  52.7433839
  35.2398326  44.6651030  53.6076170  51.3569782  38.6994760  25.8076159
  52.2281962  38.3130212  25.7211243  51.4169172  39.2548627  26.5853574
  23.7996466  45.8036199  21.3376848  24.6708646  45.4171650  21.2511933
  23.8595856  46.3590065  22.1154264  26.9997653  28.7558935  42.3436110
  27.8709834  28.3694386  42.2571195  27.0597043  29.3112802  43.1213526
  21.2455416  31.5315280  33.7320860  22.1167596  31.1450732  33.6455945
  21.3054805  32.0869147  34.5098276  48.3662616  25.4636712  38.2689827
  49.2374796  25.0772164  38.1824912  48.4262006  26.0190579  39.0467243
  38.9908776  33.5434173  34.9632520  39.8620956  33.1569624  34.8767605
  39.0508165  34.0988040  35.7409936  27.7431917  34.5368473  50.4023291
  28.6144097  34.1503924  50.3158376  27.8031307  35.0922339  51.1800707
  44.8185869  22.0839571  33.7005902  45.6898050  21.6975023  33.6140987
  44.8785259  22.6393438  34.4783318  51.6138768  25.7515719  27.7271328
  52.4850948  25.3651170  27.6406413  51.6738157  26.3069586  28.5048744
  50.4165957  46.0456240  27.0291037  51.2878138  45.6591691  26.9426122
  50.4765347  46.6010107  27.8068453  19.0965684  50.4256306  23.3296840
  19.9677865  50.0391758  23.2431925  19.1565074  50.9810173  24.1074256
  46.4291645  26.5492771  48.1181831  47.3003825  26.1628223  48.0316915
  46.4891035  27.1046638  48.8959247  42.2023838  23.0018645  55.6709832
  43.0736018  22.6154097  55.5844916  42.2623228  23.5572512  56.4487247
  31.0565667  46.3914260  41.4540156  31.9277848  46.0049712  41.3675241
  31.1165057  46.9468127  42.2317572  32.2593167  40.8425626  45.1017789
  33.1305348  40.4561078  45.0152874  32.3192557  41.3979493  45.8795205
  53.0404932  30.7125596  29.2584649  53.9117112  30.3261047  29.1719734
  53.1004322  31.2679462  30.0362065  36.7294632  21.3290113  43.1145987
  37.6006812  20.9425564  43.0281071  36.7894022  21.8843979  43.8923403
  32.1512719  24.1567339  18.8640855  33.0224900  23.7702791  18.7775940
  32.2112109  24.7121206  19.6418271  36.1302146  29.2540846  28.0021447
  37.0014326  28.8676298  27.9156532  36.1901535  29.8094713  28.7798863
  50.3662329  33.2870382  43.6516832  51.2374510  32.9005834  43.5651917
  50.4261719  33.8424249  44.4294248  51.0754700  23.8335451  24.8988915
  51.9466880  23.4470902  24.8123999  51.1354090  24.3889318  25.6766330
  49.7283920  49.5620036  25.2311310  50.5996101  49.1755488  25.1446394
  49.7883310  50.1173903  26.0088725  36.0420609  23.2271300  37.7451073
  36.9132789  22.8406752  37.6586158  36.1019999  23.7825167  38.5228489
  48.3755024  49.5759014  38.2848515  49.2467204  49.1894466  38.1983600
  48.4354414  50.1312881  39.0625931  34.4105347  27.2868542  41.9864574
  35.2817527  26.9003994  41.8999659  34.4704737  27.8422409  42.7641990
  39.9686569  22.4031828  45.4832485  40.8398749  22.0167279  45.3967570
  40.0285958  22.9585695  46.2609901  23.3470475  22.4150330  29.0024850
  24.2182656  22.0285781  28.9159935  23.4069865  22.9704197  29.7802266
  18.2732638  38.2021849  21.8199523  19.1444819  37.8157300  21.7334608
  18.3332028  38.7575716  22.5976939  45.2372852  21.0616529  38.2259684
  46.1085032  20.6751981  38.1394769  45.2972242  21.6170396  39.0037100
  20.0057959  30.2054233  21.5043778  20.8770140  29.8189685  21.4178863
  20.0657349  30.7608100  22.2821194  57.8791752  37.6720716  33.6021957
  58.7503933  37.2856167  33.5157042  57.9391142  38.2274583  34.3799373
  16.2520454  44.9965930  28.4614593  17.1232634  44.6101382  28.3749677
  16.3119844  45.5519797  29.2392008  42.0499065  22.7926729  52.1376560
  42.9211245  22.4062180  52.0511645  42.1098455  23.3480595  52.9153976
  41.4450981  24.8768835  23.8205211  42.3163161  24.4904287  23.7340295
  41.5050371  25.4322702  24.5982626  47.0648651  34.0232599  53.7786678
  47.9360831  33.6368050  53.6921763  47.1248041  34.5786465  54.5564094
  39.2805088  45.7355273  44.4375203  40.1517268  45.3490725  44.3510288
  39.3404478  46.2909140  45.2152619  35.8380351  24.9083919  50.4178780
  36.7092532  24.5219370  50.3313865  35.8979741  25.4637786  51.1956196
  20.8086787  26.8010841  32.3217765  21.6798967  26.4146292  32.2352849
  20.8686177  27.3564707  33.0995180  41.4802081  25.0066340  28.9276080
  42.3514261  24.6201791  28.8411165  41.5401471  25.5620207  29.7053496
  36.4215774  33.6794182  34.8203269  37.2927955  33.2929633  34.7338353
  36.4815164  34.2348048  35.5980684  35.5978233  35.0049450  41.9217539
  36.4690413  34.6184902  41.8352624  35.6577623  35.5603317  42.6994955
  47.1601978  19.8774449  26.0410649  48.0314158  19.4909901  25.9545734
  47.2201368  20.4328316  26.8188065  37.3658801  45.8747615  46.4044437
  38.2370981  45.4883066  46.3179522  37.4258191  46.4301482  47.1821853
  40.9977447  47.7954057  44.0003669  41.8689627  47.4089508  43.9138754
  41.0576837  48.3507923  44.7781085  18.3430287  39.4698933  36.3432868
  19.2142468  39.0834384  36.2567953  18.4029677  40.0252799  37.1210284
  42.3133752  21.9302445  29.9100378  43.1845932  21.5437897  29.8235463
  42.3733142  22.4856312  30.6877794  30.1050590  30.5448911  48.6893659
  30.9762770  30.1584363  48.6028744  30.1649980  31.1002778  49.4671075
  29.9816985  26.1060882  42.2184197  30.8529165  25.7196334  42.1319281
  30.0416374  26.6614749  42.9961613  18.5031128  33.4534966  32.7060031
  19.3743308  33.0670418  32.6195115  18.5630518  34.0088833  33.4837446
  50.8301773  40.3811822  41.6446356  51.7013953  39.9947274  41.5581441
  50.8901163  40.9365689  42.4223772  21.1282905  22.2987356  35.9188686
  21.9995086  21.9122808  35.8323771  21.1882295  22.8541223  36.6966102
  31.2110188  55.1371323  26.3277812  32.0822368  54.7506774  26.2412897
  31.2709578  55.6925189  27.1055228  51.9625500  43.8035534  25.9311724
  52.8337680  43.4170986  25.8446809  52.0224890  44.3589401  26.7089140
  24.4323324  33.8232730  16.4677554  25.3035504  33.4368182  16.3812639
  24.4922713  34.3786597  17.2454970  30.8932270  27.1817955  44.1927032
  31.7644450  26.7953407  44.1062117  30.9531660  27.7371822  44.9704448
  32.2259642  27.4558052  48.1054486  33.0971823  27.0693504  48.0189570
  32.2859032  28.0111919  48.8831901  22.0874828  24.7536837  35.9283725
  22.9587008  24.3672288  35.8418809  22.1474218  25.3090704  36.7061140
  22.9979672  26.7752701  24.9911346  23.8691852  26.3888152  24.9046430
  23.0579062  27.3306567  25.7688761  30.3531988  37.2264656  14.0541934
  31.2244168  36.8400108  13.9677018  30.4131378  37.7818523  14.8319349
  24.1926254  33.7980538  50.1813938  25.0638435  33.4115989  50.0949022
  24.2525644  34.3534404  50.9591354  46.3483545  23.4959468  36.4828717
  47.2195725  23.1094920  36.3963802  46.4082935  24.0513335  37.2606133
  53.5357944  32.6130501  32.5717788  54.4070125  32.2265953  32.4852873
  53.5957334  33.1684368  33.3495204  48.4196690  47.2966086  42.0980636
  49.2908870  46.9101537  42.0115720  48.4796080  47.8519953  42.8758051
  43.4209831  22.7141246  21.0558725  44.2922011  22.3276698  20.9693810
  43.4809221  23.2695113  21.8336141  29.6204394  21.9473111  41.6155766
  30.4916575  21.5608562  41.5290851  29.6803784  22.5026978  42.3933182
  35.6648727  21.5453387  53.8304899  36.5360908  21.1588838  53.7439984
  35.7248117  22.1007253  54.6082315  39.8556149  32.8879497  52.8760162
  40.7268329  32.5014949  52.7895247  39.9155538  33.4433364  53.6537578
  26.0710862  25.0308732  21.8053580  26.9423042  24.6444184  21.7188665
  26.1310252  25.5862599  22.5830996  41.4152867  30.2513919  19.7435428
  42.2865047  29.8649371  19.6570513  41.4752256  30.8067786  20.5212844
  26.0868813  52.9359775  32.4137869  26.9580993  52.5495226  32.3272954
  26.1468203  53.4913641  33.1915285  22.6867391  18.6568445  34.6953374
  23.5579571  18.2703897  34.6088459  22.7466781  19.2122312  35.4730790
  39.8935158  39.1652015  14.6766867  40.7647338  38.7787467  14.5901952
  39.9534548  39.7205882  15.4544283  28.1480758  41.6457671  34.2465248
  29.0192938  41.2593123  34.1600333  28.2080148  42.2011538  35.0242664
  37.8188107  31.7156432  53.3536471  38.6900287  31.3291883  53.2671556
  37.8787497  32.2710299  54.1313887  24.4378695  48.2223826  16.1292414
  25.3090876  47.8359278  16.0427498  24.4978085  48.7777693  16.9069830
  49.4101184  47.0414494  38.1447381  50.2813364  46.6549946  38.0582466
  49.4700574  47.5968361  38.9224797  22.6531096  31.8880434  38.7712803
  23.5243277  31.5015886  38.6847887  22.7130486  32.4434301  39.5490218
  19.5022993  37.9300256  34.3868959  20.3735173  37.5435708  34.3004044
  19.5622383  38.4854123  35.1646375  34.3231127  40.7451578  17.7182634
  35.1943308  40.3587030  17.6317719  34.3830517  41.3005445  18.4960050
  16.8630228  36.0030649  33.3627727  17.7342409  35.6166101  33.2762812
  16.9229618  36.5584516  34.1405143  30.7471855  46.0781897  44.3180097
  31.6184036  45.6917348  44.2315182  30.8071245  46.6335763  45.0957513
  42.3501928  36.8006124  15.8532556  43.2214108  36.4141576  15.7667641
  42.4101318  37.3559991  16.6309972  55.9590556  41.6817787  29.6941175
  56.8302736  41.2953239  29.6076260  56.0189946  42.2371654  30.4718591
  47.6344519  19.5188722  41.5818571  48.5056699  19.1324173  41.4953655
  47.6943909  20.0742588  42.3595986  32.3367113  55.5857681  31.9997716
  33.2079293  55.1993132  31.9132801  32.3966503  56.1411548  32.7775132
  34.0645249  26.1630894  16.6240593  34.9357429  25.7766346  16.5375678
  34.1244639  26.7184761  17.4018009  36.7321620  30.3330210  14.2631029
  37.6033800  29.9465662  14.1766114  36.7921010  30.8884077  15.0408445
  30.1997359  32.9965979  24.8023478  31.0709540  32.6101430  24.7158563
  30.2596749  33.5519845  25.5800894  44.1695235  48.1159103  43.7353274
  45.0407415  47.7294555  43.6488359  44.2294625  48.6712970  44.5130690
  26.6636941  26.3207159  37.5462372  27.5349121  25.9342611  37.4597457
  26.7236330  26.8761026  38.3239788  33.3496234  20.7645846  23.8846807
  34.2208414  20.3781297  23.7981892  33.4095624  21.3199712  24.6624223
  40.8183922  23.6426431  31.0112216  41.6896102  23.2561883  30.9247301
  40.8783312  24.1980298  31.7889632  52.5702837  29.3616078  46.1926997
  53.4415017  28.9751529  46.1062082  52.6302227  29.9169945  46.9704413
  19.3148562  30.0380495  45.2887915  20.1860743  29.6515947  45.2023000
  19.3747952  30.5934362  46.0665331  47.1031005  32.8399630  18.1133269
  47.9743185  32.4535082  18.0268354  47.1630394  33.3953497  18.8910685
  30.3766194  19.6136222  25.1600580  31.2478375  19.2271674  25.0735665
  30.4365584  20.1690089  25.9377996  41.1870576  49.7045736  21.8199703
  42.0582756  49.3181188  21.7334787  41.2469966  50.2599603  22.5977118
  31.5467398  45.9386259  47.8282057  32.4179579  45.5521711  47.7417142
  31.6066788  46.4940126  48.6059473  26.4454082  40.3102390  14.3883794
  27.3166263  39.9237841  14.3018879  26.5053472  40.8656256  15.1661210
  46.7763950  42.8405833  19.4094208  47.6476131  42.4541285  19.3229293
  46.8363340  43.3959700  20.1871624  17.7448537  47.7140863  32.5844072
  18.6160717  47.3276315  32.4979156  17.8047927  48.2694730  33.3621487
  28.6098442  27.8980160  40.5310478  29.4810622  27.5115611  40.4445563
  28.6697832  28.4534026  41.3087894  52.1952472  34.1128742  49.5887612
  53.0664653  33.7264194  49.5022697  52.2551862  34.6682609  50.3665028
  38.3794460  52.5147495  38.8069986  39.2506640  52.1282946  38.7205070
  38.4393850  53.0701361  39.5847401  38.1086772  48.0837110  48.0552881
  38.9798953  47.6972561  47.9687966  38.1686162  48.6390977  48.8330297
  50.6914881  28.9345437  23.3006701  51.5627061  28.5480889  23.2141786
  50.7514271  29.4899304  24.0784117  37.5250549  23.7390617  49.3335334
  38.3962730  23.3526069  49.2470419  37.5849939  24.2944484  50.1112750
  49.6211461  38.5635862  16.5977899  50.4923642  38.1771314  16.5112983
  49.6810851  39.1189729  17.3755314  16.6933809  38.6689202  19.2557754
  17.5645990  38.2824654  19.1692839  16.7533199  39.2243069  20.0335170
  40.4152386  20.5622477  24.3492519  41.2864566  20.1757929  24.2627604
  40.4751776  21.1176344  25.1269935  36.3826952  49.4310181  49.4788718
  37.2539132  49.0445633  49.3923803  36.4426342  49.9864048  50.2566134
  40.4892812  24.1674338  26.4798962  41.3604993  23.7809789  26.3934047
  40.5492202  24.7228204  27.2576378  43.1173229  54.8834616  26.2559032
  43.9885410  54.4970067  26.1694117  43.1772619  55.4388483  27.0336448
  16.6912854  33.7618397  23.6226125  17.5625035  33.3753848  23.5361210
  16.7512244  34.3172263  24.4003541  47.9724209  52.8332215  26.8404590
  48.8436389  52.4467667  26.7539674  48.0323599  53.3886082  27.6182005
  51.0730562  37.2685818  43.5370866  51.9442742  36.8821270  43.4505951
  51.1329952  37.8239685  44.3148282  51.6607692  35.3763163  42.1005107
  52.5319872  34.9898614  42.0140192  51.7207082  35.9317029  42.8782523
  22.8293771  52.0217139  38.0864595  23.7005951  51.6352591  37.9999680
  22.8893160  52.5771006  38.8642011  41.7543119  41.4381660  14.1028156
  42.6255300  41.0517112  14.0163240  41.8142509  41.9935527  14.8805571
  31.8029085  35.0649507  50.5966302  32.6741266  34.6784959  50.5101387
  31.8628475  35.6203374  51.3743718  33.1410947  28.7402936  50.9645657
  34.0123127  28.3538388  50.8780742  33.2010337  29.2956803  51.7423073
  49.4026641  33.8309103  52.7155938  50.2738821  33.4444554  52.6291022
  49.4626031  34.3862969  53.4933353  53.4562771  37.0046319  25.2935055
  54.3274952  36.6181771  25.2070139  53.5162161  37.5600186  26.0712470
  41.7444211  22.2390661  22.6553429  42.6156392  21.8526113  22.5688514
  41.8043601  22.7944528  23.4330845  17.3004514  32.9814483  26.6842003
  18.1716695  32.5949935  26.5977088  17.3603904  33.5368350  27.4619419
  16.1954538  38.8574020  37.5300986  17.0666718  38.4709472  37.4436071
  16.2553928  39.4127887  38.3078402  41.9217809  20.5457953  39.1221895
  42.7929989  20.1593405  39.0356980  41.9817199  21.1011820  39.8999311
  41.1987325  39.7731414  56.6087242  42.0699505  39.3866865  56.5222327
  41.2586715  40.3285280  57.3864658  46.0616808  45.3763371  19.9888156
  46.9328988  44.9898823  19.9023240  46.1216198  45.9317238  20.7665571
  22.8329359  24.7495727  23.3621579  23.7041539  24.3631179  23.2756664
  22.8928749  25.3049594  24.1398995  28.0796805  30.0612503  46.0722663
  28.9508985  29.6747954  45.9857747  28.1396195  30.6166370  46.8500079
  54.6368253  39.6400069  26.3945897  55.5080434  39.2535521  26.3080981
  54.6967643  40.1953936  27.1723312  32.6560911  22.3166077  16.8685399
  33.5273091  21.9301529  16.7820484  32.7160300  22.8719944  17.6462815
  53.0889090  30.2143830  31.8171601  53.9601270  29.8279282  31.7306685
  53.1488480  30.7697697  32.5949017  14.1769273  41.3426960  29.2736188
  15.0481453  40.9562411  29.1871272  14.2368663  41.8980826  30.0513603
  29.9182700  32.9954542  50.4195484  30.7894881  32.6089993  50.3330569
  29.9782090  33.5508409  51.1972900  43.8323271  52.1580261  33.4313032
  44.7035452  51.7715713  33.3448117  43.8922661  52.7134128  34.2090448
  34.5529361  36.5271860  77.1315564  33.6456423  36.2961114  77.3306713
  35.0500393  35.7309479  77.3189545  36.8811577  17.9443876  68.0521499
  36.2299557  18.5297956  67.6655513  37.6755940  18.4750071  68.1116536
  43.1478301  14.4368812  69.3126336  42.3707744  14.0979971  68.8681498
  43.8269782  14.4421435  68.6381301  34.5529362  13.5333983  63.8560870
  33.6456424  13.3023236  64.0552019  35.0500394  12.7371602  64.0434852
  37.4597441  22.2431490  66.7757556  36.7859140  22.5463187  67.3842514
  37.8463263  23.0460570  66.4263014  35.4293683  15.1755321  65.7172939
  34.9913113  14.4591180  65.2578576  36.1704124  15.4031436  65.1558030
  35.6588656  22.4111162  68.9904636  35.8340412  21.9399205  69.8050258
  34.9721444  23.0376928  69.2185896  39.5504911  14.0339703  65.3104997
  38.9334082  13.3086531  65.2138049  39.0821399  14.7949063  64.9672071
  40.4379009  20.5050209  70.9500481  40.6115887  19.9396631  70.1974334
  40.9307900  21.3051104  70.7679971  41.4254182  19.8216973  68.0497380
  42.1205086  20.4423666  68.2684694  41.7677332  18.9712325  68.3249758
  43.3245605  17.2716679  69.5784710  43.8496929  17.6103952  68.8534030
  43.2367957  16.3363694  69.3947845  35.5169050  19.9278725  66.9572473
  34.9443017  20.5468912  66.5042945  36.0901844  20.4778087  67.4912395
  38.7366310  20.2115875  68.0881056  39.6696983  20.1461437  68.2913931
  38.6489523  21.0472142  67.6295588  41.3654327  19.5281746  65.0485003
  41.2867958  19.1941609  65.9420761  42.1863993  20.0203513  65.0476475
  38.9358278  16.8449741  64.6694981  39.6394129  17.0499743  65.2852637
  38.2120927  17.4126503  64.9344065  40.8444976  17.2832270  66.7193441
  41.6790580  16.8513469  66.5370916  40.6829319  17.1114284  67.6470336
  40.4990868  13.7864383  68.0849781  40.4439672  13.6208655  67.1438225
  39.8736923  14.4940416  68.2411970  49.4729251  27.8001921  76.8148618
  50.1107661  27.6808669  76.1111958  49.3550094  28.7482765  76.8736570
  46.2818957  27.7529349  76.7510143  45.9437469  27.6370414  75.8630678
  47.1508725  27.3520514  76.7311149  42.1405773  29.6064826  72.7407034
  41.5770638  29.5154763  71.9723322  42.0258168  28.7864730  73.2209526
  39.6870205  31.1016017  75.5791254  40.4791497  30.7606842  75.1637554
  39.9266855  31.2110992  76.4993408  47.7205332  33.2735793  68.0521499
  47.0693311  33.8589874  67.6655513  48.5149694  33.8041988  68.1116536
  41.6460959  30.3624931  68.4508633  42.4191835  29.8153918  68.3121509
  41.9986358  31.2269180  68.6623095  43.9827237  26.5217597  66.0827083
  44.2352757  25.9999118  65.3210546  43.0451796  26.3583742  66.1853767
  49.0270519  25.5253375  73.8901826  49.8133609  25.1072798  73.5392243
  49.2909224  26.4299467  74.0583475  49.1980597  30.9626225  68.5890483
  48.5626430  31.0360852  69.3011388  48.8678003  31.5519824  67.9109562
  43.7023525  28.4245703  68.2851458  43.5859783  27.7490606  68.9532542
  43.8125785  27.9378077  67.4683611  46.0455066  27.8855850  71.9898147
  45.6813273  27.3586471  72.7011069  46.9022182  27.4954319  71.8164633
  45.6860553  22.9145749  66.9859496  45.8534956  23.7825986  67.3529967
  45.4957722  23.0773031  66.0620785  41.8948368  27.8276525  74.6862031
  40.9698864  27.6952739  74.8939722  42.1432781  28.6070744  75.1831973
  45.6649774  25.3703407  67.9706163  45.5449399  25.8160458  68.8091643
  44.9702362  25.7188725  67.4119701  43.4256666  38.1407049  71.6196294
  43.3480696  39.0914874  71.6984774  42.8218310  37.7952921  72.2771220
  51.3634840  25.8424880  68.7986497  52.2752696  26.0752267  68.6234194
  50.8544487  26.4261924  68.2361575  45.5232384  30.5625107  73.4550163
  45.9870730  30.8412810  72.6654786  45.2589183  29.6608551  73.2723254
  42.4156465  30.1096588  76.3929926  42.9857823  30.5383857  75.7547411
  43.0064577  29.8279173  77.0914112  44.4601270  26.6848259  70.2639728
  45.1625314  27.1369303  70.7313655  44.1281899  26.0432078  70.8919621
  40.1541350  25.3076391  72.5240339  39.3572513  25.4195085  73.0423834
  39.9266942  25.6463043  71.6581229  45.6995035  33.4989202  70.3401834
  45.5640710  34.3440737  70.7686681  46.2404848  33.7008479  69.5767767
  39.1524432  31.0164640  70.9129759  39.6648953  31.8107890  71.0635323
  39.8047145  30.3190930  70.8463360  40.9619317  34.1330396  72.9952512
  41.1385946  35.0548361  72.8073496  41.7576151  33.8188815  73.4246892
  37.1173349  29.3453294  71.6889329  37.9548571  29.7550302  71.4723037
  37.2951617  28.4052736  71.6589523  49.0137781  27.0128375  67.3773162
  48.4984405  27.7832979  67.6161550  48.7415090  26.3393511  68.0006224
  46.5984892  21.8578075  72.4358400  45.7426489  21.4684926  72.2564039
  47.0111844  21.9370036  71.5758186  53.9872056  29.7660729  69.3126336
  53.2101498  29.4271889  68.8681498  54.6663537  29.7713352  68.6381301
  48.8024085  24.8855467  69.2032943  48.4974220  25.2001616  70.0543086
  49.7554527  24.9636887  69.2460276  47.2470516  31.0445690  70.8525897
  46.7191878  30.3098450  70.5399135  46.7458019  31.8220366  70.6065866
  51.0368821  27.5939083  74.0196885  51.5500703  28.2269075  74.5218595
  51.6870045  26.9940279  73.6540245  42.3058831  23.7369817  67.2328394
  41.4696143  24.0744504  67.5537669  42.1663601  23.6018797  66.2955531
  45.3923117  28.8625900  63.8560870  44.4850178  28.6315154  64.0552019
  45.8894149  28.0663520  64.0434852  48.2991195  37.5723408  66.7757556
  47.6252894  37.8755104  67.3842514  48.6857017  38.3752488  66.4263014
  47.5149652  25.0688539  76.2655226  46.5972213  25.2903486  76.1076914
  47.9309796  25.1434849  75.4066933  48.2984700  26.4679954  71.3957906
  49.0456519  26.9801352  71.0865028  48.5676289  26.1464007  72.2562300
  46.5711350  28.9638495  68.3784860  45.6622569  28.6797528  68.4757330
  46.6006434  29.3837574  67.5188167  51.8030617  32.5745085  72.1476028
  51.3492945  31.7335995  72.2041218  51.1724584  33.2106483  72.4850808
  50.7463537  23.5037071  73.3776695  50.0086294  22.9914457  73.7086938
  50.9990311  23.0637452  72.5659972  37.1399520  26.6844009  72.3600063
  36.9423920  26.0913370  71.6351129  36.5846184  26.3796220  73.0776001
  45.1196244  26.5767116  74.4794656  45.1744854  25.6240952  74.4037132
  44.3087446  26.7326555  74.9635954  46.2687438  30.5047239  65.7172939
  45.8306868  29.7883098  65.2578576  47.0097879  30.7323354  65.1558030
  43.0588604  25.1944176  72.2385035  42.2456470  25.4938346  72.6450227
  43.5547598  24.7999864  72.9559517  45.2097182  35.1901932  74.1719299
  45.1673361  35.4162779  73.2427831  46.1259881  34.9565307  74.3205100
  54.3860553  28.7804436  71.7749258  54.2478451  28.9706032  70.8470447
  54.0296771  29.5423819  72.2317309  43.3262983  32.0664961  73.9681262
  44.1203581  31.5715282  73.7663837  42.6154675  31.5382825  73.6048968
  39.6345746  26.2108043  70.0441015  38.7043334  26.1492499  70.2610977
  39.7303218  25.6883996  69.2477656  39.5531295  22.7362856  72.6319256
  39.8138112  23.6508189  72.5228417  40.3748467  22.2687299  72.7815869
  46.4982411  37.7403080  68.9904636  46.6734166  37.2691123  69.8050258
  45.8115199  38.3668846  69.2185896  47.4539474  32.0175586  75.0367937
  47.1189306  31.9776356  75.9325587  46.9543419  31.3520302  74.5638347
  50.3898665  29.3631621  65.3104997  49.7727836  28.6378449  65.2138049
  49.9215154  30.1240981  64.9672071  42.1797211  23.5817045  64.4326301
  41.3026678  23.4605846  64.0688548  42.6554964  22.7903123  64.1805189
  45.3661137  35.9343335  71.6788821  44.5828659  36.4765015  71.7727046
  46.0653883  36.4517315  72.0783063  49.7587568  30.5009652  71.8961450
  48.8243847  30.6211114  71.7266154  49.9364237  29.5982119  71.6321460
  45.2592756  23.8855348  74.0494711  44.8890544  23.3326388  74.7375617
  45.7551849  23.2813481  73.4969711  51.2136351  32.6870792  69.4297636
  51.4896195  32.5727387  70.3391510  50.3440849  32.2888277  69.3909809
  48.1832580  35.8625328  70.3345498  48.7120347  35.3517783  69.7215661
  48.4460800  35.5467859  71.1991031  41.5388328  36.9140445  73.0943274
  40.8698703  37.3986573  72.6107314  41.4001198  37.1609666  74.0086653
  36.9075905  25.1758900  69.8739206  37.2029346  24.2669578  69.8206260
  36.0063941  25.1546640  69.5520209  38.6363747  22.8572998  69.9978532
  38.3076453  21.9770377  69.8153638  38.9903117  22.8020666  70.8854921
  41.7505570  23.1445968  70.3654009  42.0901642  23.6731889  69.6432618
  42.1977690  23.4826374  71.1412576  43.7373717  21.6420589  68.5647302
  44.4582080  22.0201842  68.0611019  43.1139021  22.3609466  68.6682280
  47.8804840  22.3465738  69.5005634  48.0968454  23.2290376  69.1994463
  47.3998907  21.9551951  68.7711276  51.2772764  35.8342127  70.9500481
  51.4509641  35.2688549  70.1974334  51.7701655  36.6343022  70.7679971
  43.8837340  21.1768380  71.3944839  44.0053251  20.2485026  71.5935726
  43.5939383  21.1907066  70.4823154  52.2647936  35.1508891  68.0497380
  52.9598841  35.7715584  68.2684694  52.6071086  34.3004242  68.3249758
  54.1639359  32.6008597  69.5784710  54.6890683  32.9395869  68.8534030
  54.0761712  31.6655612  69.3947845  38.3272359  34.8592121  73.9404592
  39.1530379  34.5595893  73.5603235  37.9766411  34.0899743  74.3894380
  43.2953892  34.2118589  76.0102265  42.6733901  33.5489294  75.7104493
  43.9658759  34.2379721  75.3275913  36.5280964  32.7778447  74.8993525
  35.6912872  32.3500622  74.7177527  36.5004610  32.9710890  75.8364316
  42.8567399  32.7622512  69.4860726  43.0055519  33.4457977  68.8327399
  43.6633843  32.7427602  70.0010182  40.6120032  28.7887690  70.4921795
  40.3666074  27.8850020  70.6902005  40.7815947  28.7904840  69.5501273
  39.8815680  24.5216047  67.9907956  39.1884925  24.5960402  67.3347992
  39.6367432  23.7576391  68.5129473  46.3562805  35.2570643  66.9572473
  45.7836772  35.8760830  66.5042945  46.9295598  35.8070004  67.4912395
  49.5760064  35.5407793  68.0881056  50.5090738  35.4753355  68.2913931
  49.4883277  36.3764060  67.6295588  52.2048081  34.8573663  65.0485003
  52.1261713  34.5233527  65.9420761  53.0257748  35.3495431  65.0476475
  46.7409603  26.5931455  64.2988526  47.6868708  26.4637664  64.3676944
  46.3623848  25.8546117  64.7757954  44.9252520  24.5181432  64.2343411
  44.0183976  24.2214545  64.3106125  45.2028501  24.2211250  63.3677697
  46.5414586  19.0618322  70.3887652  45.7315314  18.7165407  70.7642898
  47.2299003  18.7525865  70.9775264  43.6951305  21.3768367  64.3755390
  44.5570469  21.7023265  64.6351208  43.8801649  20.5899863  63.8628456
  37.6255463  29.3908961  74.5301594  37.6026151  29.4896648  73.5783477
  37.9356100  30.2374111  74.8518760  50.6308819  22.4096984  70.5746961
  49.7434674  22.6946635  70.3567156  51.0462808  22.2490747  69.7274238
  38.6393070  36.9904735  75.6618406  38.5047538  36.2305136  75.0956404
  38.2225132  37.7145635  75.1947195  49.7752033  32.1741659  64.6694981
  50.4787883  32.3791661  65.2852637  49.0514682  32.7418420  64.9344065
  50.6049843  27.9251520  70.7897252  50.5485045  28.3820071  69.9504884
  51.1578186  27.1642204  70.6120094  51.6838730  32.6124188  66.7193441
  52.5184334  32.1805386  66.5370916  51.5223073  32.4406201  67.6470336
  51.3384622  29.1156301  68.0849781  51.2833426  28.9500573  67.1438225
  50.7130678  29.8232334  68.2411970  44.6480748  18.6164410  67.6635099
  44.6359418  19.5606250  67.8203370  45.5404170  18.4334556  67.3694560
  54.8220991  41.8509514  66.0827083  55.0746512  41.3291036  65.3210546
  53.8845550  41.6875660  66.1853767  56.5254308  38.2437667  66.9859496
  56.6928710  39.1117904  67.3529967  56.3351477  38.4064949  66.0620785
  53.1452586  39.0661735  67.2328394  52.3089898  39.4036422  67.5537669
  53.0057355  38.9310715  66.2955531  56.2316871  44.1917818  63.8560870
  55.3243933  43.9607071  64.0552019  56.7287903  43.3955437  64.0434852
  53.0190966  38.9108963  64.4326301  52.1420432  38.7897763  64.0688548
  53.4948719  38.1195041  64.1805189  47.7469660  40.5050818  69.8739206
  48.0423101  39.5961496  69.8206260  46.8457695  40.4838557  69.5520209
  49.4757501  38.1864915  69.9978532  49.1470207  37.3062294  69.8153638
  49.8296872  38.1312584  70.8854921  54.5767472  36.9712507  68.5647302
  55.2975834  37.3493760  68.0611019  53.9532776  37.6901384  68.6682280
  50.7209434  39.8507965  67.9907956  50.0278679  39.9252320  67.3347992
  50.4761186  39.0868309  68.5129473  57.5803358  41.9223373  64.2988526
  58.5262462  41.7929581  64.3676944  57.2017603  41.1838035  64.7757954
  55.7646275  39.8473350  64.2343411  54.8577730  39.5506462  64.3106125
  56.0422256  39.5503168  63.3677697  54.5345059  36.7060285  64.3755390
  55.3964223  37.0315183  64.6351208  54.7195404  35.9191781  63.8628456
  55.4874502  33.9456328  67.6635099  55.4753172  34.8898168  67.8203370
  56.3797924  33.7626473  67.3694560  37.4597442  -0.7506388  53.5002863
  36.7859141  -0.4474691  54.1087821  37.8463264   0.0522693  53.1508320
  35.6588657  -0.5826715  55.7149942  35.8340413  -1.0538672  56.5295565
  34.9721445   0.0439051  55.9431203  49.4729252   4.8064044  63.5393925
  50.1107662   4.6870791  62.8357265  49.3550095   5.7544888  63.5981877
  46.2818958   4.7591472  63.4755450  45.9437470   4.6432537  62.5875984
  47.1508727   4.3582637  63.4556456  42.1405774   6.6126948  59.4652341
  41.5770639   6.5216885  58.6968628  42.0258169   5.7926853  59.9454833
  39.6870206   8.1078140  62.3036561  40.4791498   7.7668965  61.8882860
  39.9266856   8.2173115  63.2238714  47.7205333  10.2797916  54.7766805
  47.0693313  10.8651996  54.3900819  48.5149696  10.8104111  54.8361843
  41.6460960   7.3687053  55.1753940  42.4191836   6.8216040  55.0366816
  41.9986359   8.2331303  55.3868401  43.9827238   3.5279719  52.8072390
  44.2352758   3.0061241  52.0455853  43.0451797   3.3645865  52.9099073
  49.1980598   7.9688348  55.3135790  48.5626431   8.0422974  56.0256694
  48.8678004   8.5581947  54.6354869  43.7023527   5.4307825  55.0096765
  43.5859785   4.7552729  55.6777849  43.8125786   4.9440199  54.1928918
  46.0455067   4.8917972  58.7143454  45.6813275   4.3648593  59.4256375
  46.9022183   4.5016441  58.5409939  48.4435888   8.3824851  65.3770633
  48.1436611   9.2849890  65.2686440  48.0986947   8.1157034  66.2291786
  41.8948369   4.8338648  61.4107337  40.9698866   4.7014862  61.6185029
  42.1432782   5.6132867  61.9077280  45.6649775   2.3765530  54.6951469
  45.5449401   2.8222580  55.5336949  44.9702364   2.7250847  54.1365007
  43.4256667  15.1469171  58.3441600  43.3480697  16.0976996  58.4230081
  42.8218311  14.8015044  59.0016527  49.9704424   7.8312821  62.9145385
  49.3413286   7.9958535  62.2121453  49.5830086   8.2454431  63.6856349
  53.8493656   8.7667259  60.2689748  53.1644694   9.1466160  59.7186782
  53.9337505   9.3762586  61.0021696  45.5232386   7.5687229  60.1795470
  45.9870731   7.8474932  59.3900092  45.2589184   6.6670674  59.9968561
  42.4156467   7.1158711  63.1175233  42.9857824   7.5445979  62.4792718
  43.0064579   6.8341296  63.8159419  44.4601272   3.6910382  56.9885035
  45.1625315   4.1431425  57.4558961  44.1281900   3.0494201  57.6164928
  40.1541351   2.3138514  59.2485645  39.3572514   2.4257208  59.7669141
  39.9266943   2.6525166  58.3826536  45.6995036  10.5051324  57.0647140
  45.5640711  11.3502860  57.4931988  46.2404849  10.7070602  56.3013074
  39.1524434   8.0226762  57.6375065  39.6648954   8.8170013  57.7880630
  39.8047147   7.3253053  57.5708667  40.9619318  11.1392519  59.7197818
  41.1385947  12.0610483  59.5318802  41.7576152  10.8250938  60.1492198
  42.0850634  12.6570692  65.7208161  42.6358059  12.5287756  64.9485155
  41.2462110  12.9565581  65.3703054  37.1173351   6.3515417  58.4134636
  37.9548573   6.7612425  58.1968344  37.2951618   5.4114859  58.3834830
  49.0137783   4.0190497  54.1018469  48.4984406   4.7895102  54.3406856
  48.7415091   3.3455633  54.7251530  53.9872057   6.7722852  56.0371642
  53.2101500   6.4334011  55.5926804  54.6663538   6.7775475  55.3626607
  47.2470518   8.0507813  57.5771204  46.7191879   7.3160572  57.2644441
  46.7458020   8.8282489  57.3311172  51.0368822   4.6001206  60.7442192
  51.5500704   5.2331198  61.2463902  51.6870046   4.0002401  60.3785552
  42.3058832   0.7431940  53.9573701  41.4696145   1.0806627  54.2782975
  42.1663602   0.6080920  53.0200838  45.3923118   5.8688023  50.5806177
  44.4850180   5.6377276  50.7797326  45.8894150   5.0725642  50.7680159
  48.2991197  14.5785530  53.5002863  47.6252895  14.8817227  54.1087821
  48.6857019  15.3814610  53.1508320  48.2984701   3.4742077  58.1203213
  49.0456520   3.9863474  57.8110335  48.5676291   3.1526130  58.9807606
  46.5711351   5.9700618  55.1030167  45.6622571   5.6859651  55.2002637
  46.6006435   6.3899696  54.2433474  51.8030619   9.5807207  58.8721335
  51.3492946   8.7398117  58.9286525  51.1724585  10.2168606  59.2096115
  50.2463558  11.4183704  59.8071153  50.5386532  11.9788761  59.0883518
  50.7562179  11.7112265  60.5624312  37.1399522   3.6906132  59.0845369
  36.9423921   3.0975493  58.3596436  36.5846186   3.3858342  59.8021308
  45.1196245   3.5829238  61.2039962  45.1744855   2.6303075  61.1282439
  44.3087447   3.7388677  61.6881261  46.2687439   7.5109361  52.4418246
  45.8306869   6.7945220  51.9823883  47.0097880   7.7385476  51.8803337
  43.0588605   2.2006298  58.9630341  42.2456471   2.5000469  59.3695533
  43.5547599   1.8061987  59.6804824  45.2097183  12.1964055  60.8964606
  45.1673362  12.4224901  59.9673138  46.1259882  11.9627430  61.0450407
  54.3860554   5.7866559  58.4994564  54.2478452   5.9768154  57.5715753
  54.0296773   6.5485941  58.9562615  43.3262984   9.0727084  60.6926569
  44.1203582   8.5777404  60.4909144  42.6154676   8.5444947  60.3294274
  48.1457828  11.4545180  65.0438936  48.1994851  12.0236116  65.8116652
  47.2772610  11.6247065  64.6792973  39.6345747   3.2170166  56.7686321
  38.7043335   3.1554621  56.9856283  39.7303219   2.6946119  55.9722963
  45.9034260   9.6456106  64.3724406  45.7645346   9.2774890  65.2450344
  45.1148856  10.1603746  64.2008364  46.4982412  14.7465203  55.7149942
  46.6734168  14.2753246  56.5295565  45.8115200  15.3730969  55.9431203
  47.4539475   9.0237709  61.7613244  47.1189308   8.9838479  62.6570893
  46.9543421   8.3582425  61.2883654  50.3898667   6.3693743  52.0350303
  49.7727837   5.6440571  51.9383356  49.9215155   7.1303103  51.6917377
  41.0643497  17.8954565  62.4889802  41.3040095  18.5273089  63.1668821
  40.2212694  17.5442605  62.7755162  45.5771359  13.7033688  64.8931306
  45.5041531  14.5088659  65.4050611  45.1348752  13.9025654  64.0679328
  45.3661139  12.9405458  58.4034128  44.5828661  13.4827138  58.4972353
  46.0653884  13.4579437  58.8028369  48.0370043  13.6020522  67.0489465
  48.7498015  14.2367987  66.9765367  47.5460071  13.6984388  66.2329467
  49.7587569   7.5071774  58.6206757  48.8243848   7.6273237  58.4511461
  49.9364238   6.6044241  58.3566767  51.2136352   9.6932915  56.1542943
  51.4896196   9.5789510  57.0636817  50.3440851   9.2950400  56.1155116
  47.8490416  13.9419266  59.7975757  48.0312810  13.1240922  60.2603509
  48.6723402  14.1586958  59.3600647  48.1832581  12.8687451  57.0590805
  48.7120348  12.3579906  56.4460967  48.4460801  12.5529981  57.9236338
  38.6849674  10.8851320  64.8026139  39.2703111  10.1395008  64.9354043
  38.4874513  11.1955277  65.6862803  41.5388329  13.9202568  59.8188581
  40.8698705  14.4048695  59.3352621  41.4001199  14.1671788  60.7331960
  45.6793598  15.9546311  66.4171239  46.2311906  16.1177933  67.1820325
  46.0199791  16.5450749  65.7451264  36.9075906   2.1821023  56.5984513
  37.2029348   1.2731701  56.5451567  36.0063942   2.1608762  56.2765515
  48.8161985  13.9028287  63.4034922  48.6913125  13.1018027  62.8945867
  49.4741076  14.3974480  62.9148891  50.8796894  11.7037307  65.0314472
  49.9327229  11.5842658  64.9592798  51.2279667  10.8159805  65.1140733
  47.8843327  11.4990023  61.2318824  47.7368289  10.5706730  61.4126394
  48.7096820  11.5210114  60.7475899  51.4877449  12.3218582  62.3183697
  52.4123996  12.1161443  62.1808148  51.3192752  12.0734983  63.2273038
  51.2772765  12.8404249  57.6745788  51.4509642  12.2750672  56.9219640
  51.7701656  13.6405144  57.4925278  52.2647937  12.1571014  54.7742686
  52.9598842  12.7777706  54.9930001  52.6071088  11.3066365  55.0495064
  54.1639361   9.6070719  56.3030017  54.6890685   9.9457992  55.5779337
  54.0761713   8.6717734  56.1193152  45.8259409  13.5204793  68.4319894
  46.1346536  13.2753940  69.3042593  46.6234891  13.7251431  67.9438764
  45.8480021  15.6742702  60.6625270  45.4085012  15.1819081  61.3558127
  46.5988138  15.1315670  60.4217346  38.3272360  11.8654243  60.6649898
  39.1530380  11.5658015  60.2848542  37.9766412  11.0961866  61.1139687
  43.2953893  11.2180712  62.7347572  42.6733903  10.5551417  62.4349800
  43.9658760  11.2441843  62.0521220  36.5280965   9.7840570  61.6238832
  35.6912874   9.3562744  61.4422833  36.5004611   9.9773013  62.5609623
  42.8567400   9.7684635  56.2106032  43.0055521  10.4520099  55.5572705
  43.6633844   9.7489725  56.7255488  40.6120033   5.7949812  57.2167101
  40.3666075   4.8912142  57.4147312  40.7815948   5.7966963  56.2746579
  39.8815681   1.5278170  54.7153263  39.1884926   1.6022525  54.0593299
  39.6367433   0.7638514  55.2374780  46.3562806  12.2632765  53.6817780
  45.7836773  12.8822952  53.2288252  46.9295600  12.8132127  54.2157702
  49.5760066  12.5469915  54.8126362  50.5090739  12.4815477  55.0159238
  49.4883279  13.3826182  54.3540895  52.2048082  11.8635786  51.7730310
  52.1261714  11.5295649  52.6666068  53.0257749  12.3557554  51.7721782
  46.7409604   3.5993578  51.0233832  47.6868709   3.4699786  51.0922250
  46.3623849   2.8608240  51.5003261  37.6255464   6.3971083  61.2546900
  37.6026153   6.4958770  60.3028784  37.9356101   7.2436234  61.5764067
  38.6393071  13.9966858  62.3863713  38.5047539  13.2367259  61.8201711
  38.2225133  14.7207758  61.9192502  49.7752034   9.1803781  51.3940288
  50.4787884   9.3853784  52.0097944  49.0514683   9.7480543  51.6589372
  50.6049844   4.9313642  57.5142558  50.5485046   5.3882194  56.6750191
  51.1578187   4.1704327  57.3365401  41.7962197  14.8936175  62.5982155
  41.6794581  15.8381607  62.4960846  40.9754643  14.5909736  62.9867955
  51.6838732   9.6186310  53.4438748  52.5184335   9.1867509  53.2616223
  51.5223074   9.4468324  54.3715643  51.3384624   6.1218424  54.8095087
  51.2833428   5.9562695  53.8683532  50.7130679   6.8294457  54.9657277
  42.8216711  15.5464437  65.8138084  43.7243958  15.5788047  66.1304579
  42.5954081  14.6164888  65.8284420  44.5770313  14.2995423  62.4748162
  43.6265944  14.2997285  62.3612535  44.8802799  13.5528158  61.9584197
  60.3123007  20.1355961  63.5393925  60.9501417  20.0162709  62.8357265
  60.1943850  21.0836805  63.5981877  57.1212713  20.0883390  63.4755450
  56.7831224  19.9724454  62.5875984  57.9902481  19.6874555  63.4556456
  52.9799529  21.9418866  59.4652341  52.4164394  21.8508803  58.6968628
  52.8651924  21.1218770  59.9454833  50.5263961  23.4370058  62.3036561
  51.3185252  23.0960882  61.8882860  50.7660611  23.5465033  63.2238714
  58.5599087  25.6089834  54.7766805  57.9087067  26.1943914  54.3900819
  59.3543450  26.1396029  54.8361843  52.4854714  22.6978971  55.1753940
  53.2585590  22.1507958  55.0366816  52.8380113  23.5623220  55.3868401
  54.3239757  24.0255353  68.3820839  54.0329623  24.9300984  68.2667505
  54.9596741  24.0671881  69.0964909  55.2495964  21.4032202  64.9722199
  55.8459536  21.1788224  64.2579162  55.3070935  20.6616947  65.5747647
  54.8220992  18.8571637  52.8072390  55.0746513  18.3353158  52.0455853
  53.8845551  18.6937782  52.9099073  59.8664275  17.8607415  60.6147133
  60.6527364  17.4426839  60.2637550  60.1302979  18.7653508  60.7828781
  60.0374352  23.2980266  55.3135790  59.4020185  23.3714892  56.0256694
  59.7071759  23.8873864  54.6354869  54.5417281  20.7599743  55.0096765
  54.4253539  20.0844646  55.6777849  54.6519541  20.2732117  54.1928918
  56.8848822  20.2209890  58.7143454  56.5207029  19.6940511  59.4256375
  57.7415938  19.8308359  58.5409939  56.5254309  15.2499790  53.7104802
  56.6928711  16.1180026  54.0775273  56.3351478  15.4127071  52.7866092
  59.2829642  23.7116769  65.3770633  58.9830365  24.6141807  65.2686440
  58.9380702  23.4448952  66.2291786  52.7342124  20.1630565  61.4107337
  51.8092620  20.0306780  61.6185029  52.9826537  20.9424785  61.9077280
  56.5043530  17.7057447  54.6951469  56.3843155  18.1514498  55.5336949
  55.8096118  18.0542765  54.1365007  50.0950935  19.8063839  62.2451126
  50.2243316  20.0598318  63.1590538  49.4148386  20.3991547  61.9255781
  54.2650422  30.4761089  58.3441600  54.1874452  31.4268914  58.4230081
  53.6612066  30.1306961  59.0016527  62.2028596  18.1778920  55.5231803
  63.1146452  18.4106307  55.3479501  61.6938243  18.7615965  54.9606882
  60.8098178  23.1604739  62.9145385  60.1807041  23.3250453  62.2121453
  60.4223840  23.5746348  63.6856349  64.6887410  24.0959177  60.2689748
  64.0038448  24.4758078  59.7186782  64.7731260  24.7054503  61.0021696
  56.3626140  22.8979147  60.1795470  56.8264486  23.1766850  59.3900092
  56.0982938  21.9962592  59.9968561  53.2550221  22.4450628  63.1175233
  53.8251578  22.8737897  62.4792718  53.8458333  22.1633213  63.8159419
  55.2995026  19.0202299  56.9885035  56.0019070  19.4723343  57.4558961
  54.9675655  18.3786118  57.6164928  49.0420360  17.2785852  62.2902169
  48.2519414  17.5343381  61.8142279  49.5331608  18.0934190  62.3954209
  50.9935106  17.6430431  59.2485645  50.1966269  17.7549125  59.7669141
  50.7660698  17.9817083  58.3826536  56.8240773  24.1675134  67.1968160
  56.8885206  24.6295542  68.0326332  56.1151697  23.5372499  67.3250470
  47.3258063  17.5316342  64.7217159  47.5766102  18.4163352  64.9874735
  47.8617612  17.3520944  63.9492251  56.5388791  25.8343242  57.0647140
  56.4034466  26.6794778  57.4931988  57.0798603  26.0362520  56.3013074
  49.9918188  23.3518680  57.6375065  50.5042709  24.1461930  57.7880630
  50.6440901  22.6544970  57.5708667  51.8013073  26.4684436  59.7197818
  51.9779701  27.3902401  59.5318802  52.5969906  26.1542855  60.1492198
  51.0865429  18.5149068  69.5959982  50.9718945  17.6134325  69.8967081
  50.2309947  18.7612765  69.2444798  52.9244388  27.9862610  65.7208161
  53.4751814  27.8579673  64.9485155  52.0855864  28.2857499  65.3703054
  47.9567105  21.6807334  58.4134636  48.7942327  22.0904343  58.1968344
  48.1345373  20.7406776  58.3834830  59.8531537  19.3482415  54.1018469
  59.3378161  20.1187020  54.3406856  59.5808846  18.6747551  54.7251530
  57.4378648  14.1932116  59.1603707  56.5820245  13.8038966  58.9809346
  57.8505600  14.2724077  58.3003493  64.8265811  22.1014770  56.0371642
  64.0495254  21.7625929  55.5926804  65.5057292  22.1067393  55.3626607
  59.6417840  17.2209507  55.9278250  59.3367976  17.5355656  56.7788393
  60.5948282  17.2990927  55.9705583  58.0864272  23.3799730  57.5771204
  57.5585634  22.6452490  57.2644441  57.5851775  24.1574407  57.3311172
  52.8183000  14.0419397  59.9377815  53.3926752  13.8194578  59.2051008
  53.4053982  14.1108091  60.6906417  61.8762577  19.9293124  60.7442192
  62.3894459  20.5623115  61.2463902  62.5263801  19.3294319  60.3785552
  53.1452587  16.0723858  53.9573701  52.3089899  16.4098544  54.2782975
  53.0057357  15.9372837  53.0200838  55.1205667  10.9160646  58.6652885
  54.4670080  10.6009663  58.0409500  55.0786142  10.2936386  59.3912708
  56.2316872  21.1979941  50.5806177  55.3243934  20.9669194  50.7797326
  56.7287904  20.4017560  50.7680159  59.1384951  29.9077448  53.5002863
  58.4646650  30.2109145  54.1087821  59.5250773  30.7106528  53.1508320
  58.3543408  17.4042579  62.9900532  57.4365969  17.6257526  62.8322221
  58.7703551  17.4788890  62.1312240  59.1378456  18.8033995  58.1203213
  59.8850275  19.3155392  57.8110335  59.4070045  18.4818047  58.9807606
  57.4105106  21.2992535  55.1030167  56.5016325  21.0151568  55.2002637
  57.4400190  21.7191614  54.2433474  62.6424373  24.9099125  58.8721335
  62.1886700  24.0690035  58.9286525  62.0118340  25.5460523  59.2096115
  61.5857293  15.8391111  60.1022002  60.8480050  15.3268497  60.4332245
  61.8384066  15.3991493  59.2905279  61.0857312  26.7475622  59.8071153
  61.3780287  27.3080679  59.0883518  61.5955933  27.0404183  60.5624312
  47.9793276  19.0198050  59.0845369  47.7817676  18.4267410  58.3596436
  47.4239940  18.7150260  59.8021308  55.9590000  18.9121156  61.2039962
  56.0138610  17.9594992  61.1282439  55.1481202  19.0680595  61.6881261
  57.1081194  22.8401279  52.4418246  56.6700624  22.1237138  51.9823883
  57.8491634  23.0677394  51.8803337  53.8982360  17.5298216  58.9630341
  53.0850225  17.8292386  59.3695533  54.3941354  17.1353905  59.6804824
  56.0490938  27.5255973  60.8964606  56.0067116  27.7516819  59.9673138
  56.9653636  27.2919347  61.0450407  65.2254308  21.1158476  58.4994564
  65.0872207  21.3060072  57.5715753  64.8690527  21.8777859  58.9562615
  53.3896434  15.1016571  64.5791576  54.0295814  14.9605330  63.8814540
  52.5573965  14.8151085  64.2030178  54.1656738  24.4019002  60.6926569
  54.9597337  23.9069322  60.4909144  53.4548431  23.8736865  60.3294274
  58.9851583  26.7837097  65.0438936  59.0388605  27.3528034  65.8116652
  58.1166364  26.9538982  64.6792973  50.4739502  18.5462084  56.7686321
  49.5437090  18.4846539  56.9856283  50.5696974  18.0238036  55.9722963
  50.3925051  15.0716896  59.3564563  50.6531868  15.9862230  59.2473723
  51.2142223  14.6041339  59.5061176  51.8649976  16.4854654  66.5263388
  52.5373030  16.2772016  65.8776036  51.0379763  16.2876740  66.0868620
  56.7428014  24.9748024  64.3724406  56.6039100  24.6066808  65.2450344
  55.9542611  25.4895663  64.2008364  57.3376166  30.0757120  55.7149942
  57.5127922  29.6045163  56.5295565  56.6508954  30.7022886  55.9431203
  58.2933230  24.3529626  61.7613244  57.9583062  24.3130396  62.6570893
  57.7937175  23.6874342  61.2883654  52.2677474  19.7597256  67.2865825
  52.1297271  19.0277495  67.8877364  53.1782397  19.6706157  67.0050012
  61.2292421  21.6985661  52.0350303  60.6121592  20.9732489  51.9383356
  60.7608910  22.4595021  51.6917377  54.8959774  19.4717216  66.7749504
  55.6059393  18.8310408  66.7336123  54.8529082  19.7230111  67.6975685
  51.9037252  33.2246483  62.4889802  52.1433850  33.8565007  63.1668821
  51.0606448  32.8734523  62.7755162  53.0190967  15.9171085  51.1571607
  52.1420433  15.7959886  50.7933854  53.4948720  15.1257163  50.9050496
  44.5393107  20.7048245  61.2513115  45.2264147  20.3909975  60.6634130
  44.3841236  21.6089609  60.9780366  49.3427829  15.5938441  65.6798138
  49.2586018  14.9864111  64.9448548  48.5210536  16.0847460  65.6807635
  56.4165114  29.0325605  64.8931306  56.3435285  29.8380577  65.4050611
  55.9742507  29.2317571  64.0679328  56.2054893  28.2697375  58.4034128
  55.4222415  28.8119056  58.4972353  56.9047638  28.7871355  58.8028369
  58.8763797  28.9312439  67.0489465  59.5891769  29.5659904  66.9765367
  58.3853826  29.0276305  66.2329467  60.5981324  22.8363692  58.6206757
  59.6637603  22.9565155  58.4511461  60.7757992  21.9336159  58.3566767
  56.0986512  16.2209388  60.7740018  55.7284300  15.6680428  61.4620924
  56.5945604  15.6167521  60.2215018  53.9275711  26.6806883  67.8695036
  54.6285170  27.3143366  68.0224430  53.4570826  27.0221614  67.1090675
  62.0530106  25.0224833  56.1542943  62.3289950  24.9081427  57.0636817
  61.1834605  24.6242318  56.1155116  58.6884170  29.2711184  59.7975757
  58.8706565  28.4532839  60.2603509  59.5117156  29.4878876  59.3600647
  59.0226336  28.1979369  57.0590805  59.5514102  27.6871823  56.4460967
  59.2854556  27.8821899  57.9236338  49.5243429  26.2143238  64.8026139
  50.1096865  25.4686926  64.9354043  49.3268267  26.5247195  65.6862803
  52.3782084  29.2494485  59.8188581  51.7092459  29.7340613  59.3352621
  52.2394954  29.4963706  60.7331960  44.1161083  18.7848838  63.5230582
  44.1545183  18.2512429  64.3167700  43.6101376  18.2584044  62.9041559
  56.5187352  31.2838229  66.4171239  57.0705660  31.4469850  67.1820325
  56.8593546  31.8742667  65.7451264  51.4951846  13.6313379  67.0193124
  51.5593172  14.4928210  66.6070522  51.4318966  13.0187380  66.2865483
  47.7469661  17.5112940  56.5984513  48.0423102  16.6023619  56.5451567
  46.8457697  17.4900680  56.2765515  59.6555740  29.2320204  63.4034922
  59.5306879  28.4309944  62.8945867  60.3134831  29.7266398  62.9148891
  51.2763908  15.5868937  62.5812062  50.5550494  16.2004905  62.4419535
  52.0657164  16.1226702  62.5028708  61.7190648  27.0329224  65.0314472
  60.7720984  26.9134576  64.9592798  62.0673421  26.1451723  65.1140733
  49.4757503  15.1927038  56.7223838  49.1470209  14.3124417  56.5398944
  49.8296873  15.1374707  57.6100228  58.7237081  26.8281941  61.2318824
  58.5762044  25.8998648  61.4126394  59.5490575  26.8502031  60.7475899
  52.5899326  15.4800008  57.0899316  52.9295398  16.0085929  56.3677924
  53.0371446  15.8180414  57.8657883  62.3271203  27.6510499  62.3183697
  63.2517751  27.4453361  62.1808148  62.1586507  27.4026901  63.2273038
  54.5767473  13.9774629  55.2892609  55.2975835  14.3555882  54.7856326
  53.9532777  14.6963506  55.3927587  58.7198596  14.6819778  56.2250941
  58.9362210  15.5644416  55.9239769  58.2392663  14.2905992  55.4956583
  53.4597817  17.6405492  62.8021686  53.3142398  17.9545795  63.6945967
  52.9823021  18.2590392  62.2492584  55.3194200  14.6308040  62.8502575
  55.3055769  13.7349133  62.5134873  56.0366628  14.6378703  63.4840861
  62.1166519  28.1696167  57.6745788  62.2903397  27.6042589  56.9219640
  62.6095411  28.9697062  57.4925278  47.9343479  20.1810836  65.7409347
  47.3896947  20.9570644  65.8729621  48.8122829  20.5281640  65.5828468
  54.7231096  13.5122420  58.1190145  54.8447007  12.5839066  58.3181033
  54.4333138  13.5261106  57.2068461  63.1041692  27.4862931  54.7742686
  63.7992597  28.1069624  54.9930001  63.4464842  26.6358283  55.0495064
  48.7209501  19.3080732  68.6339504  47.9791237  19.4563368  69.2204134
  48.4002245  19.5688998  67.7706253  65.0033115  24.9362637  56.3030017
  65.5284439  25.2749910  55.5779337  64.9155468  24.0009652  56.1193152
  56.6653164  28.8496710  68.4319894  56.9740290  28.6045857  69.3042593
  57.4628646  29.0543349  67.9438764  56.6873776  31.0034620  60.6625270
  56.2478766  30.5110999  61.3558127  57.4381893  30.4607588  60.4217346
  49.1666115  27.1946161  60.6649898  49.9924135  26.8949933  60.2848542
  48.8160167  26.4253783  61.1139687  54.1347648  26.5472629  62.7347572
  53.5127657  25.8843334  62.4349800  54.8052515  26.5733761  62.0521220
  47.3674720  25.1132487  61.6238832  46.5306628  24.6854662  61.4422833
  47.3398365  25.3064931  62.5609623  53.6961155  25.0976553  56.2106032
  53.8449275  25.7812017  55.5572705  54.5027598  25.0781643  56.7255488
  51.4513788  21.1241730  57.2167101  51.2059830  20.2204060  57.4147312
  51.6209702  21.1258881  56.2746579  50.7209435  16.8570088  54.7153263
  50.0278680  16.9314443  54.0593299  50.4761187  16.0930431  55.2374780
  57.1956560  27.5924683  53.6817780  56.6230527  28.2114870  53.2288252
  57.7689354  28.1424045  54.2157702  60.4153820  27.8761833  54.8126362
  61.3484493  27.8107395  55.0159238  60.3277033  28.7118100  54.3540895
  63.0441837  27.1927703  51.7730310  62.9655468  26.8587567  52.6666068
  63.8651504  27.6849471  51.7721782  57.5803359  18.9285496  51.0233832
  58.5262464  18.7991704  51.0922250  57.2017604  18.1900158  51.5003261
  55.7646276  16.8535472  50.9588718  54.8577731  16.5568585  51.0351431
  56.0422257  16.5565290  50.0923004  46.6824216  18.1741836  61.4087764
  46.3627001  17.3207144  61.1162138  46.1357645  18.3890414  62.1645731
  50.4604124  20.8904277  65.1257271  50.6790134  21.8221384  65.1445304
  50.8729898  20.5312251  65.9112074  57.3808342  11.3972362  57.1132959
  56.5709070  11.0519447  57.4888205  58.0692759  11.0879906  57.7020570
  54.5345061  13.7122407  51.1000697  55.3964225  14.0377306  51.3596514
  54.7195405  12.9253903  50.5873763  46.5512476  21.7944747  63.3780886
  45.8575948  21.3798700  62.8650840  47.2985467  21.8365284  62.7814305
  48.4649219  21.7263001  61.2546900  48.4419907  21.8250688  60.3028784
  48.7749855  22.5728152  61.5764067  51.1236597  23.7839156  65.3693515
  52.0779850  23.7523098  65.3023446  50.9249120  23.3229780  66.1843741
  51.7135979  22.3540272  67.9364313  52.5328868  22.8484351  67.9599150
  51.9872787  21.4372240  67.9081880  61.4702575  14.7451024  57.2992268
  60.5828430  15.0300675  57.0812463  61.8856564  14.5844788  56.4519545
  49.4786826  29.3258775  62.3863713  49.3441294  28.5659176  61.8201711
  49.0618888  30.0499675  61.9192502  60.6145789  24.5095699  51.3940288
  61.3181639  24.7145701  52.0097944  59.8908437  25.0772461  51.6589372
  61.4443599  20.2605560  57.5142558  61.3878800  20.7174112  56.6750191
  61.9971941  19.4996245  57.3365401  52.6355951  30.2228092  62.5982155
  52.5188336  31.1673525  62.4960846  51.8148398  29.9201654  62.9867955
  62.5232486  24.9478228  53.4438748  63.3578090  24.5159427  53.2616223
  62.3616829  24.7760242  54.3715643  62.1778378  21.4510341  54.8095087
  62.1227182  21.2854613  53.8683532  61.5524433  22.1586374  54.9657277
  46.9670893  16.6878406  68.6356510  47.6129757  16.1777360  69.1243735
  46.7588044  17.4247087  69.2099935  55.4874504  10.9518450  54.3880406
  55.4753174  11.8960290  54.5448677  56.3797926  10.7688596  54.0939867
  53.6610466  30.8756354  65.8138084  54.5637712  30.9079965  66.1304579
  53.4347836  29.9456805  65.8284420  55.4164068  29.6287341  62.4748162
  54.4659699  29.6289202  62.3612535  55.7196554  28.8820075  61.9584197
  67.9606467  35.4175307  63.4755450  67.6224979  35.3016372  62.5875984
  68.8296236  35.0166472  63.4556456  63.8193283  37.2710784  59.4652341
  63.2558148  37.1800721  58.6968628  63.7045678  36.4510688  59.9454833
  61.3657715  38.7661975  62.3036561  62.1579007  38.4252800  61.8882860
  61.6054365  38.8756950  63.2238714  69.3992842  40.9381751  54.7766805
  68.7480822  41.5235832  54.3900819  70.1937205  41.4687946  54.8361843
  63.3248469  38.0270889  55.1753940  64.0979345  37.4799876  55.0366816
  63.6773868  38.8915138  55.3868401  66.0889718  36.7324119  64.9722199
  66.6853291  36.5080142  64.2579162  66.1464690  35.9908865  65.5747647
  65.6614747  34.1863555  52.8072390  65.9140267  33.6645076  52.0455853
  64.7239306  34.0229700  52.9099073  65.3811036  36.0891661  55.0096765
  65.2647294  35.4136564  55.6777849  65.4913295  35.6024035  54.1928918
  67.7242576  35.5501808  58.7143454  67.3600784  35.0232429  59.4256375
  68.5809692  35.1600277  58.5409939  67.3648063  30.5791707  53.7104802
  67.5322466  31.4471944  54.0775273  67.1745233  30.7418989  52.7866092
  63.5735878  35.4922483  61.4107337  62.6486375  35.3598697  61.6185029
  63.8220291  36.2716702  61.9077280  67.3437284  33.0349365  54.6951469
  67.2236910  33.4806416  55.5336949  66.6489873  33.3834683  54.1365007
  60.9344689  35.1355757  62.2451126  61.0637070  35.3890236  63.1590538
  60.2542140  35.7283465  61.9255781  65.1044176  45.8053007  58.3441600
  65.0268206  46.7560832  58.4230081  64.5005820  45.4598879  59.0016527
  67.2019895  38.2271065  60.1795470  67.6658240  38.5058768  59.3900092
  66.9376693  37.3254509  59.9968561  64.0943976  37.7742546  63.1175233
  64.6645333  38.2029815  62.4792718  64.6852088  37.4925131  63.8159419
  66.1388781  34.3494217  56.9885035  66.8412824  34.8015261  57.4558961
  65.8069409  33.7078036  57.6164928  59.8814115  32.6077770  62.2902169
  59.0913169  32.8635298  61.8142279  60.3725362  33.4226108  62.3954209
  61.8328860  32.9722349  59.2485645  61.0360023  33.0841043  59.7669141
  61.6054452  33.3109001  58.3826536  58.1651818  32.8608260  64.7217159
  58.4159856  33.7455270  64.9874735  58.7011366  32.6812862  63.9492251
  67.3782545  41.1635160  57.0647140  67.2428220  42.0086695  57.4931988
  67.9192358  41.3654437  56.3013074  60.8311943  38.6810598  57.6375065
  61.3436463  39.4753848  57.7880630  61.4834656  37.9836888  57.5708667
  62.6406827  41.7976354  59.7197818  62.8173456  42.7194319  59.5318802
  63.4363661  41.4834773  60.1492198  58.7960860  37.0099252  58.4134636
  59.6336082  37.4196260  58.1968344  58.9739127  36.0698694  58.3834830
  70.6925292  34.6774333  54.1018469  70.1771915  35.4478937  54.3406856
  70.4202600  34.0039469  54.7251530  68.2772403  29.5224033  59.1603707
  67.4213999  29.1330884  58.9809346  68.6899354  29.6015994  58.3003493
  68.9258027  38.7091648  57.5771204  68.3979388  37.9744408  57.2644441
  68.4245529  39.4866324  57.3311172  63.6576754  29.3711314  59.9377815
  64.2320506  29.1486496  59.2051008  64.2447737  29.4400009  60.6906417
  63.9846341  31.4015775  53.9573701  63.1483654  31.7390462  54.2782975
  63.8451111  31.2664755  53.0200838  65.9599422  26.2452563  58.6652885
  65.3063834  25.9301580  58.0409500  65.9179896  25.6228304  59.3912708
  67.0710627  36.5271858  50.5806177  66.1637689  36.2961112  50.7797326
  67.5681659  35.7309478  50.7680159  69.9778706  45.2369365  53.5002863
  69.3040404  45.5401062  54.1087821  70.3644528  46.0398446  53.1508320
  69.1937162  32.7334497  62.9900532  68.2759724  32.9549444  62.8322221
  69.6097306  32.8080807  62.1312240  69.9772210  34.1325912  58.1203213
  70.7244029  34.6447310  57.8110335  70.2463800  33.8109965  58.9807606
  68.2498860  36.6284453  55.1030167  67.3410080  36.3443486  55.2002637
  68.2793944  37.0483532  54.2433474  58.8187031  34.3489967  59.0845369
  58.6211430  33.7559328  58.3596436  58.2633695  34.0442177  59.8021308
  66.7983754  34.2413074  61.2039962  66.8532364  33.2886910  61.1282439
  65.9874956  34.3972513  61.6881261  67.9474948  38.1693197  52.4418246
  67.5094378  37.4529056  51.9823883  68.6885389  38.3969312  51.8803337
  64.7376114  32.8590133  58.9630341  63.9243980  33.1584304  59.3695533
  65.2335108  32.4645822  59.6804824  66.8884692  42.8547890  60.8964606
  66.8460871  43.0808737  59.9673138  67.8047391  42.6211265  61.0450407
  64.2290189  30.4308489  64.5791576  64.8689568  30.2897248  63.8814540
  63.3967720  30.1443002  64.2030178  65.0050493  39.7310919  60.6926569
  65.7991091  39.2361240  60.4909144  64.2942185  39.2028783  60.3294274
  61.3133256  33.8754001  56.7686321  60.3830844  33.8138457  56.9856283
  61.4090728  33.3529954  55.9722963  61.2318805  30.4008814  59.3564563
  61.4925623  31.3154147  59.2473723  62.0535978  29.9333257  59.5061176
  62.7043731  31.8146571  66.5263388  63.3766784  31.6063933  65.8776036
  61.8773517  31.6168657  66.0868620  68.1769921  45.4049038  55.7149942
  68.3521677  44.9337081  56.5295565  67.4902709  46.0314804  55.9431203
  69.1326984  39.6821544  61.7613244  68.7976817  39.6422314  62.6570893
  68.6330930  39.0166260  61.2883654  63.1071228  35.0889174  67.2865825
  62.9691026  34.3569413  67.8877364  64.0176151  34.9998074  67.0050012
  63.8584722  31.2463003  51.1571607  62.9814188  31.1251804  50.7933854
  64.3342475  30.4549081  50.9050496  55.3786862  36.0340163  61.2513115
  56.0657902  35.7201893  60.6634130  55.2234990  36.9381527  60.9780366
  60.1821584  30.9230359  65.6798138  60.0979773  30.3156029  64.9448548
  59.3604290  31.4139377  65.6807635  67.0448648  43.5989293  58.4034128
  66.2616170  44.1410973  58.4972353  67.7441393  44.1163273  58.8028369
  66.9380266  31.5501306  60.7740018  66.5678054  30.9972346  61.4620924
  67.4339359  30.9459439  60.2215018  69.8620090  43.5271286  57.0590805
  70.3907857  43.0163741  56.4460967  70.1248310  43.2113817  57.9236338
  63.2175838  44.5786403  59.8188581  62.5486214  45.0632531  59.3352621
  63.0788708  44.8255623  60.7331960  54.9554838  34.1140756  63.5230582
  54.9938937  33.5804347  64.3167700  54.4495131  33.5875961  62.9041559
  62.3345600  28.9605296  67.0193124  62.3986927  29.8220127  66.6070522
  62.2712720  28.3479298  66.2865483  58.5863415  32.8404858  56.5984513
  58.8816857  31.9315536  56.5451567  57.6851451  32.8192597  56.2765515
  62.1157662  30.9160855  62.5812062  61.3944248  31.5296822  62.4419535
  62.9050918  31.4518619  62.5028708  60.3151257  30.5218956  56.7223838
  59.9863963  29.6416335  56.5398944  60.6690628  30.4666624  57.6100228
  63.4293080  30.8091925  57.0899316  63.7689153  31.3377847  56.3677924
  63.8765201  31.1472332  57.8657883  65.4161227  29.3066547  55.2892609
  66.1369590  29.6847800  54.7856326  64.7926531  30.0255424  55.3927587
  69.5592350  30.0111696  56.2250941  69.7755965  30.8936334  55.9239769
  69.0786417  29.6197909  55.4956583  64.2991572  32.9697409  62.8021686
  64.1536152  33.2837712  63.6945967  63.8216775  33.5882310  62.2492584
  66.1587954  29.9599957  62.8502575  66.1449523  29.0641051  62.5134873
  66.8760383  29.9670621  63.4840861  58.7737234  35.5102754  65.7409347
  58.2290702  36.2862562  65.8729621  59.6516584  35.8573558  65.5828468
  65.5624850  28.8414338  58.1190145  65.6840762  27.9130984  58.3181033
  65.2726893  28.8553023  57.2068461  59.5603256  34.6372650  68.6339504
  58.8184992  34.7855285  69.2204134  59.2396000  34.8980916  67.7706253
  60.0059869  42.5238079  60.6649898  60.8317889  42.2241851  60.2848542
  59.6553921  41.7545701  61.1139687  64.9741402  41.8764547  62.7347572
  64.3521412  41.2135252  62.4349800  65.6446269  41.9025679  62.0521220
  58.2068474  40.4424405  61.6238832  57.3700383  40.0146579  61.4422833
  58.1792120  40.6356848  62.5609623  64.5354909  40.4268470  56.2106032
  64.6843030  41.1103935  55.5572705  65.3421353  40.4073560  56.7255488
  62.2907542  36.4533648  57.2167101  62.0453584  35.5495978  57.4147312
  62.4603457  36.4550798  56.2746579  61.5603190  32.1862005  54.7153263
  60.8672435  32.2606360  54.0593299  61.3154942  31.4222349  55.2374780
  68.0350315  42.9216601  53.6817780  67.4624282  43.5406788  53.2288252
  68.6083109  43.4715962  54.2157702  68.4197113  34.2577413  51.0233832
  69.3656218  34.1283622  51.0922250  68.0411358  33.5192075  51.5003261
  66.6040031  32.1827390  50.9588718  65.6971486  31.8860503  51.0351431
  66.8816012  31.8857208  50.0923004  57.5217971  33.5033753  61.4087764
  57.2020755  32.6499061  61.1162138  56.9751399  33.7182331  62.1645731
  61.2997878  36.2196194  65.1257271  61.5183888  37.1513302  65.1445304
  61.7123652  35.8604169  65.9112074  68.2202096  26.7264280  57.1132959
  67.4102825  26.3811364  57.4888205  68.9086513  26.4171823  57.7020570
  65.3738815  29.0414325  51.1000697  66.2357979  29.3669223  51.3596514
  65.5589159  28.2545821  50.5873763  57.3906231  37.1236665  63.3780886
  56.6969702  36.7090617  62.8650840  58.1379222  37.1657201  62.7814305
  59.3042973  37.0554918  61.2546900  59.2813662  37.1542606  60.3028784
  59.6143610  37.9020069  61.5764067  61.9630351  39.1131074  65.3693515
  62.9173605  39.0815016  65.3023446  61.7642875  38.6521697  66.1843741
  60.3180580  44.6550693  62.3863713  60.1835048  43.8951094  61.8201711
  59.9012642  45.3791593  61.9192502  57.8064648  32.0170323  68.6356510
  58.4523511  31.5069277  69.1243735  57.5981799  32.7539005  69.2099935
  66.3268258  26.2810368  54.3880406  66.3146928  27.2252208  54.5448677
  67.2191680  26.0980513  54.0939867  69.4257170  48.1696776  56.5984513
  69.7210611  47.2607454  56.5451567  68.5245206  48.1484515  56.2765515
  54.2650423   7.4823212  45.0686907  54.1874453   8.4331037  45.1475388
  53.6612067   7.1369084  45.7261833  52.9244390   4.9924733  52.4453467
  53.4751815   4.8641796  51.6730461  52.0855866   5.2919622  52.0948360
  59.1384952   6.9139570  40.2248170  58.4646651   7.2171267  40.8333128
  59.5250774   7.7168651  39.8753627  57.3376168   7.0819243  42.4395249
  57.5127923   6.6107286  43.2540872  56.6508956   7.7085009  42.6676510
  51.9037253  10.2308606  49.2135109  52.1433851  10.8627130  49.8914128
  51.0606449   9.8796646  49.5000468  56.4165115   6.0387728  51.6176613
  56.3435286   6.8442700  52.1295918  55.9742508   6.2379694  50.7924634
  52.3782085   6.2556608  46.5433888  51.7092460   6.7402736  46.0597928
  52.2394955   6.5025828  47.4577266  56.5187354   8.2900351  53.1416546
  57.0705662   8.4531973  53.9065631  56.8593547   8.8804789  52.4696571
  56.6873777   8.0096743  47.3870577  56.2478767   7.5173121  48.0803434
  57.4381894   7.4669710  47.1462652  49.1666116   4.2008284  47.3895205
  49.9924136   3.9012055  47.0093849  48.8160168   3.4315906  47.8384994
  49.4786827   6.3320898  49.1109019  49.3441295   5.5721299  48.5447017
  49.0618889   7.0561798  48.6437808  52.6355953   7.2290215  49.3227462
  52.5188337   8.1735647  49.2206152  51.8148399   6.9263776  49.7113261
  53.6610467   7.8818477  52.5383390  54.5637714   7.9142087  52.8549885
  53.4347837   6.9518928  52.5529726  55.4164069   6.6349463  49.1993469
  54.4659700   6.6351325  49.0857841  55.7196555   5.8882198  48.6829504
  67.9606469  12.4237430  50.2000756  67.6224980  12.3078495  49.3121291
  68.8296237  12.0228595  50.1801762  63.8193284  14.2772906  46.1897647
  63.2558150  14.1862843  45.4213935  63.7045679  13.4572811  46.6700140
  61.3657716  15.7724098  49.0281868  62.1579008  15.4314923  48.6128167
  61.6054366  15.8819073  49.9484021  69.3992843  17.9443874  41.5012112
  68.7480823  18.5297954  41.1146126  70.1937206  18.4750069  41.5607150
  63.3248470  15.0333011  41.8999246  64.0979346  14.4861998  41.7612122
  63.6773869  15.8977260  42.1113708  65.1633513  16.3609393  55.1066146
  64.8723379  17.2655024  54.9912812  65.7990497  16.4025921  55.8210215
  66.0889720  13.7386242  51.6967505  66.6853292  13.5142264  50.9824468
  66.1464691  12.9970987  52.2992953  65.6614748  11.1925677  39.5317696
  65.9140269  10.6707199  38.7701159  64.7239307  11.0291823  39.6344380
  65.3811037  13.0953783  41.7342071  65.2647295  12.4198687  42.4023156
  65.4913297  12.6086157  40.9174224  67.7242578  12.5563930  45.4388761
  67.3600785  12.0294551  46.1501682  68.5809694  12.1662399  45.2655246
  70.1223398  16.0470809  52.1015939  69.8224121  16.9495848  51.9931747
  69.7774457  15.7802992  52.9537092  63.5735879  12.4984606  48.1352644
  62.6486376  12.3660820  48.3430336  63.8220293  13.2778825  48.6322586
  67.3437286  10.0411488  41.4196776  67.2236911  10.4868538  42.2582256
  66.6489874  10.3896805  40.8610314  60.9344690  12.1417879  48.9696433
  61.0637072  12.3952358  49.8835845  60.2542142  12.7345587  48.6501088
  65.1044178  22.8115129  45.0686907  65.0268207  23.7622954  45.1475388
  64.5005821  22.4661002  45.7261833  67.2019896  15.2333187  46.9040776
  67.6658241  15.5120890  46.1145399  66.9376694  14.3316632  46.7213867
  64.0943977  14.7804669  49.8420540  64.6645334  15.2091937  49.2038024
  64.6852089  14.4987253  50.5404725  66.1388782  11.3556340  43.7130342
  66.8412825  11.8077383  44.1804268  65.8069410  10.7140158  44.3410235
  59.8814116   9.6139892  49.0147475  59.0913170   9.8697421  48.5387586
  60.3725363  10.4288230  49.1199516  61.8328861   9.9784472  45.9730952
  61.0360025  10.0903166  46.4914448  61.6054454  10.3171124  45.1071842
  67.6634529  16.5029175  53.9213466  67.7278961  16.9649582  54.7571638
  66.9545453  15.8726540  54.0495776  58.1651819   9.8670383  51.4462466
  58.4159857  10.7517393  51.7120042  58.7011367   9.6874984  50.6737558
  67.3782547  18.1697282  43.7892447  67.2428221  19.0148818  44.2177295
  67.9192359  18.3716560  43.0258381  60.8311944  15.6872720  44.3620372
  61.3436465  16.4815971  44.5125937  61.4834657  14.9899011  44.2953973
  62.6406829  18.8038477  46.4443125  62.8173457  19.7256441  46.2564109
  63.4363662  18.4896896  46.8737505  61.9259185  10.8503108  56.3205288
  61.8112700   9.9488366  56.6212387  61.0703703  11.0966805  55.9690105
  63.7638144  20.3216650  52.4453467  64.3145569  20.1933714  51.6730461
  62.9249620  20.6211539  52.0948360  58.7960861  14.0161375  45.1379942
  59.6336083  14.4258383  44.9213650  58.9739128  13.0760817  45.1080136
  70.6925293  11.6836455  40.8263775  70.1771916  12.4541060  41.0652163
  70.4202601  11.0101591  41.4496837  68.9258028  15.7153771  44.3016511
  68.3979389  14.9806530  43.9889748  68.4245531  16.4928447  44.0556479
  63.9846343   8.4077898  40.6819007  63.1483655   8.7452584  41.0028282
  63.8451112   8.2726878  39.7446144  67.0710628  13.5333981  37.3051484
  66.1637690  13.3023234  37.5042633  67.5681660  12.7371600  37.4925465
  69.9778707  22.2431488  40.2248170  69.3040406  22.5463185  40.8333128
  70.3644529  23.0460568  39.8753627  69.9772211  11.1388035  44.8448519
  70.7244030  11.6509432  44.5355641  70.2463801  10.8172088  45.7052913
  68.2498862  13.6346576  41.8275474  67.3410081  13.3505609  41.9247943
  68.2793945  14.0545654  40.9678781  58.8187032  11.3552090  45.8090676
  58.6211432  10.7621451  45.0841742  58.2633696  11.0504300  46.5266615
  66.7983756  11.2475196  47.9285269  66.8532365  10.2949033  47.8527746
  65.9874958  11.4034635  48.4126567  67.9474949  15.1755319  39.1663552
  67.5094379  14.4591178  38.7069190  68.6885390  15.4031434  38.6048644
  64.7376115   9.8652256  45.6875648  63.9243981  10.1646427  46.0940840
  65.2335110   9.4707945  46.4050130  66.8884693  19.8610013  47.6209913
  66.8460872  20.0870859  46.6918445  67.8047392  19.6273388  47.7695714
  65.0050494  16.7373042  47.4171875  65.7991093  16.2423362  47.2154450
  64.2942187  16.2090905  47.0539581  69.8245339  19.1191138  51.7684243
  69.8782361  19.6882074  52.5361959  68.9560120  19.2893023  51.4038280
  61.3133258  10.8816124  43.4931628  60.3830846  10.8200579  43.7101590
  61.4090730  10.3592077  42.6968269  62.7043732   8.8208694  53.2508694
  63.3766785   8.6126056  52.6021343  61.8773519   8.6230780  52.8113926
  67.5821770  17.3102064  51.0969712  67.4432856  16.9420848  51.9695651
  66.7936366  17.8249703  50.9253670  68.1769922  22.4111160  42.4395249
  68.3521678  21.9399204  43.2540872  67.4902710  23.0376927  42.6676510
  69.1326985  16.6883667  48.4858550  68.7976818  16.6484437  49.3816200
  68.6330931  16.0228383  48.0128960  63.1071229  12.0951297  54.0111131
  62.9691027  11.3631536  54.6122670  64.0176153  12.0060197  53.7295319
  65.7353530  11.8071256  53.4994811  66.4453148  11.1664448  53.4581429
  65.6922838  12.0584151  54.4220992  62.7431007  25.5600523  49.2135109
  62.9827606  26.1919047  49.8914128  61.9000204  25.2088563  49.5000468
  55.3786863  13.0402285  47.9758421  56.0657903  12.7264015  47.3879437
  55.2234992  13.9443650  47.7025673  60.1821585   7.9292482  52.4043445
  60.0979774   7.3218151  51.6693855  59.3604292   8.4201500  52.4052941
  67.2558869  21.3679646  51.6176613  67.1829041  22.1734617  52.1295918
  66.8136262  21.5671612  50.7924634  67.0448649  20.6051416  45.1279435
  66.2616171  21.1473096  45.2217659  67.7441394  21.1225395  45.5273676
  69.7157553  21.2666480  53.7734772  70.4285525  21.9013945  53.7010673
  69.2247581  21.3630346  52.9574774  64.7669466  19.0160923  54.5940343
  65.4678926  19.6497406  54.7469737  64.2964581  19.3575655  53.8335982
  69.5277926  21.6065224  46.5221063  69.7100321  20.7886880  46.9848816
  70.3510912  21.8232916  46.0845953  69.8620092  20.5333409  43.7836112
  70.3907858  20.0225864  43.1706274  70.1248311  20.2175939  44.6481645
  60.3637184  18.5497278  51.5271445  60.9490621  17.8040966  51.6599349
  60.1662023  18.8601235  52.4108109  63.2175840  21.5848526  46.5433888
  62.5486215  22.0694653  46.0597928  63.0788709  21.8317746  47.4577266
  54.9554839  11.1202878  50.2475888  54.9938939  10.5866469  51.0413006
  54.4495132  10.5938084  49.6286866  67.3581108  23.6192269  53.1416546
  67.9099416  23.7823891  53.9065631  67.6987302  24.2096707  52.4696571
  58.5863417   9.8466981  43.3229820  58.8816858   8.9377659  43.2696873
  57.6851452   9.8254720  43.0010822  62.1157664   7.9222977  49.3057368
  61.3944249   8.5358945  49.1664842  62.9050919   8.4580742  49.2274014
  69.5630837  19.1635981  47.9564130  69.4155800  18.2352688  48.1371701
  70.3884331  19.1856072  47.4721206  64.2991573   9.9759532  49.5266992
  64.1536154  10.2899835  50.4191274  63.8216776  10.5944432  48.9737891
  58.7737235  12.5164876  52.4654653  58.2290703  13.2924684  52.5974928
  59.6516585  12.8635681  52.3073775  59.5603257  11.6434773  55.3584810
  58.8184993  11.7917408  55.9449441  59.2396001  11.9043038  54.4951560
  67.5046920  21.1850751  55.1565200  67.8134046  20.9399898  56.0287900
  68.3022402  21.3897389  54.6684071  67.5267532  23.3388660  47.3870577
  67.0872522  22.8465039  48.0803434  68.2775649  22.7961628  47.1462652
  60.0059871  19.5300201  47.3895205  60.8317890  19.2303973  47.0093849
  59.6553923  18.7607824  47.8384994  64.9741404  18.8826669  49.4592879
  64.3521413  18.2197374  49.1595106  65.6446271  18.9087801  48.7766526
  58.2068476  17.4486528  48.3484139  57.3700384  17.0208702  48.1668140
  58.1792121  17.6418971  49.2854930  64.5354911  17.4330593  42.9351339
  64.6843031  18.1166057  42.2818012  65.3421354  17.4135683  43.4500795
  62.2907544  13.4595770  43.9412408  62.0453586  12.5558100  44.1392618
  62.4603458  13.4612921  42.9991886  61.5603191   9.1924128  41.4398569
  60.8672436   9.2668483  40.7838605  61.3154943   8.4284472  41.9620086
  68.0350316  19.9278723  40.4063087  67.4624283  20.5468910  39.9533558
  68.6083110  20.4778085  40.9403008  68.4197115  11.2639536  37.7479139
  69.3656219  11.1345744  37.8167557  68.0411360  10.5254198  38.2248567
  57.5217972  10.5095876  48.1333071  57.2020757   9.6561184  47.8407445
  56.9751400  10.7244454  48.8891038  61.2997880  13.2258317  51.8502577
  61.5183890  14.1575425  51.8690611  61.7123654  12.8666291  52.6357381
  57.3906232  14.1298787  50.1026192  56.6969704  13.7152740  49.5896147
  58.1379223  14.1719324  49.5059611  59.3042975  14.0617041  47.9792207
  59.2813663  14.1604728  47.0274090  59.6143611  14.9082192  48.3009373
  61.9630353  16.1193196  52.0938822  62.9173606  16.0877138  52.0268753
  61.7642876  15.6583820  52.9089047  62.5529735  14.6894312  54.6609619
  63.3722624  15.1838391  54.6844456  62.8266542  13.7726280  54.6327187
  60.3180581  21.6612816  49.1109019  60.1835049  20.9013216  48.5447017
  59.9012644  22.3853715  48.6437808  63.4749707  22.5582133  49.3227462
  63.3582091  23.5027565  49.2206152  62.6542154  22.2555694  49.7113261
  57.8064649   9.0232446  55.3601816  58.4523513   8.5131400  55.8489041
  57.5981800   9.7601128  55.9345242  64.5004221  23.2110395  52.5383390
  65.4031468  23.2434005  52.8549885  64.2741591  22.2810845  52.5529726
  66.2557823  21.9641381  49.1993469  65.3053454  21.9643243  49.0857841
  66.5590310  21.2174116  48.6829504  69.0045573  25.1962300  51.4462466
  69.2553612  26.0809310  51.7120042  69.5405122  25.0166902  50.6737558
  69.6354615  29.3453292  45.1379942  70.4729837  29.7550301  44.9213650
  69.8132883  28.4052734  45.1080136  69.6580786  26.6844008  45.8090676
  69.4605186  26.0913368  45.0841742  69.1027450  26.3796218  46.5266615
  66.2180617  28.3694203  47.9758421  66.9051657  28.0555933  47.3879437
  66.0628746  29.2735567  47.7025673  65.7948594  26.4494796  50.2475888
  65.8332693  25.9158387  51.0413006  65.2888886  25.9230002  49.6286866
  69.4257171  25.1758898  43.3229820  69.7210612  24.2669577  43.2696873
  68.5245207  25.1546638  43.0010822  69.6130989  27.8456794  52.4654653
  69.0684458  28.6216602  52.5974928  70.4910339  28.1927598  52.3073775
  70.3997011  26.9726690  55.3584810  69.6578747  27.1209326  55.9449441
  70.0789756  27.2334956  54.4951560  69.0462230  32.7778445  48.3484139
  68.2094138  32.3500620  48.1668140  69.0185876  32.9710889  49.2854930
  68.3611727  25.8387793  48.1333071  68.0414511  24.9853102  47.8407445
  67.8145155  26.0536372  48.8891038  68.2299987  29.4590705  50.1026192
  67.5363458  29.0444658  49.5896147  68.9772978  29.5011241  49.5059611
  70.1436729  29.3908959  47.9792207  70.1207417  29.4896646  47.0274090
  70.4537366  30.2374110  48.3009373  68.6458403  24.3524364  55.3601816
  69.2917267  23.8423318  55.8489041  68.4375555  25.0893045  55.9345242
  15.2024068  33.2735793  68.0521496  14.5512048  33.8589874  67.6655509
  15.9968431  33.8041988  68.1116533  21.4690792  29.7660729  69.3126333
  20.6920235  29.4271889  68.8681495  22.1482273  29.7713352  68.6381298
  12.8741853  28.8625900  63.8560867  11.9668915  28.6315154  64.0552016
  13.3712885  28.0663520  64.0434849  15.7809932  37.5723408  66.7757553
  15.1071631  37.8755104  67.3842511  16.1675754  38.3752488  66.4263010
  13.7506174  30.5047239  65.7172936  13.3125604  29.7883098  65.2578573
  14.4916615  30.7323354  65.1558027  13.9801147  37.7403080  68.9904633
  14.1552903  37.2691123  69.8050255  13.2933935  38.3668846  69.2185893
  17.8717402  29.3631621  65.3104993  17.2546573  28.6378449  65.2138046
  17.4033890  30.1240981  64.9672068  18.7591500  35.8342127  70.9500478
  18.9328378  35.2688549  70.1974331  19.2520391  36.6343022  70.7679968
  19.7466673  35.1508891  68.0497377  20.4417577  35.7715584  68.2684691
  20.0889823  34.3004242  68.3249754  21.6458096  32.6008597  69.5784707
  22.1709420  32.9395869  68.8534027  21.5580448  31.6655612  69.3947842
  13.8381541  35.2570643  66.9572470  13.2655508  35.8760830  66.5042942
  14.4114335  35.8070004  67.4912392  17.0578801  35.5407793  68.0881052
  17.9909474  35.4753355  68.2913928  16.9702014  36.3764060  67.6295585
  19.6866818  34.8573663  65.0485000  19.6080449  34.5233527  65.9420758
  20.5076484  35.3495431  65.0476472  17.2570769  32.1741659  64.6694978
  17.9606620  32.3791661  65.2852634  16.5333418  32.7418420  64.9344062
  19.1657467  32.6124188  66.7193438  20.0003071  32.1805386  66.5370913
  19.0041810  32.4406201  67.6470333  18.8203359  29.1156301  68.0849778
  18.7652163  28.9500573  67.1438222  18.1949414  29.8232334  68.2411967
  27.7941742  43.1293839  76.8148615  28.4320152  43.0100586  76.1111955
  27.6762585  44.0774683  76.8736567  24.6031448  43.0821267  76.7510140
  24.2649960  42.9662332  75.8630675  25.4721216  42.6812432  76.7311146
  20.4618264  44.9356743  72.7407031  19.8983129  44.8446680  71.9723319
  20.3470659  44.1156648  73.2209523  26.0417823  48.6027711  68.0521496
  25.3905802  49.1881792  67.6655509  26.8362185  49.1333906  68.1116533
  19.9673450  45.6916848  68.4508630  20.7404326  45.1445835  68.3121506
  20.3198849  46.5561098  68.6623091  22.3039728  41.8509514  66.0827080
  22.5565248  41.3291036  65.3210543  21.3664287  41.6875660  66.1853764
  27.3483010  40.8545293  73.8901823  28.1346100  40.4364716  73.5392240
  27.6121715  41.7591385  74.0583472  27.5193088  46.2918143  68.5890480
  26.8838921  46.3652770  69.3011385  27.1890494  46.8811742  67.9109559
  32.7491438  40.7920526  74.7934802  33.4816609  40.2219743  75.0272631
  31.9930793  40.4042126  75.2341307  22.0236016  43.7537620  68.2851455
  21.9072274  43.0782524  68.9532539  22.1338276  43.2669994  67.4683608
  24.3667557  43.2147767  71.9898144  24.0025764  42.6878388  72.7011066
  25.2234673  42.8246237  71.8164630  24.0073044  38.2437667  66.9859493
  24.1747447  39.1117904  67.3529964  23.8170213  38.4064949  66.0620782
  20.2160859  43.1568443  74.6862027  19.2911355  43.0244657  74.8939719
  20.4645272  43.9362662  75.1831970  30.1645521  39.2237186  76.3322760
  29.2562399  39.1552595  76.0381521  30.1133117  39.7009131  77.1604586
  23.9862265  40.6995325  67.9706159  23.8661890  41.1452375  68.8091640
  23.2914853  41.0480642  67.4119698  29.6847331  41.1716798  68.7986494
  30.5965187  41.4044185  68.6234191  29.1756978  41.7553842  68.2361572
  23.8444875  45.8917024  73.4550160  24.3083221  46.1704727  72.6654783
  23.5801674  44.9900469  73.2723251  22.7813762  42.0140177  70.2639725
  23.4837805  42.4661220  70.7313652  22.4494390  41.3723996  70.8919618
  18.4753841  40.6368309  72.5240336  17.6785004  40.7487003  73.0423831
  18.2479433  40.9754961  71.6581226  24.0207526  48.8281119  70.3401830
  23.8853201  49.6732655  70.7686678  24.5617339  49.0300397  69.5767764
  17.4736924  46.3456557  70.9129756  17.9861444  47.1399808  71.0635320
  18.1259636  45.6482848  70.8463357  27.3350272  42.3420292  67.3773159
  26.8196896  43.1124897  67.6161546  27.0627581  41.6685428  68.0006220
  24.9197383  37.1869993  72.4358397  24.0638980  36.7976844  72.2564036
  25.3324335  37.2661954  71.5758183  32.3084547  45.0952647  69.3126333
  31.5313989  44.7563806  68.8681495  32.9876028  45.1005270  68.6381298
  27.1236576  40.2147384  69.2032940  26.8186711  40.5293534  70.0543083
  28.0767018  40.2928804  69.2460273  25.5683007  46.3737608  70.8525894
  25.0404369  45.6390367  70.5399132  25.0670510  47.1512284  70.6065863
  29.3581312  42.9231001  74.0196882  29.8713194  43.5560993  74.5218592
  30.0082536  42.3232196  73.6540242  20.6271322  39.0661735  67.2328391
  19.7908634  39.4036422  67.5537666  20.4876092  38.9310715  66.2955528
  23.7135608  44.1917818  63.8560867  22.8062669  43.9607071  64.0552016
  24.2106640  43.3955437  64.0434849  26.6203686  52.9015325  66.7757553
  25.9465385  53.2047022  67.3842511  27.0069508  53.7044406  66.4263010
  25.8362143  40.3980456  76.2655223  24.9184704  40.6195403  76.1076911
  26.2522287  40.4726767  75.4066930  26.6197191  41.7971872  71.3957903
  27.3669010  42.3093269  71.0865025  26.8888780  41.4755925  72.2562297
  24.8923841  44.2930413  68.3784857  23.9835060  44.0089446  68.4757327
  24.9218925  44.7129491  67.5188164  30.1243108  47.9037002  72.1476025
  29.6705436  47.0627912  72.2041215  29.4937075  48.5398401  72.4850805
  29.0676028  38.8328988  73.3776692  28.3298785  38.3206375  73.7086935
  29.3202802  38.3929370  72.5659969  23.4408735  41.9059033  74.4794653
  23.4957345  40.9532870  74.4037129  22.6299937  42.0618473  74.9635951
  24.5899929  45.8339157  65.7172936  24.1519359  45.1175015  65.2578573
  25.3310370  46.0615271  65.1558027  21.3801095  40.5236093  72.2385032
  20.5668961  40.8230264  72.6450224  21.8760089  40.1291782  72.9559514
  23.5309673  50.5193850  74.1719296  23.4885852  50.7454696  73.2427828
  24.4472372  50.2857225  74.3205097  32.7073044  44.1096354  71.7749254
  32.5690942  44.2997950  70.8470444  32.3509262  44.8715736  72.2317306
  21.6475474  47.3956879  73.9681259  22.4416072  46.9007199  73.7663834
  20.9367166  46.8674742  73.6048965  17.9558237  41.5399961  70.0441012
  17.0255825  41.4784416  70.2610974  18.0515709  41.0175914  69.2477653
  17.8743786  38.0654774  72.6319253  18.1350603  38.9800107  72.5228414
  18.6960959  37.5979216  72.7815866  24.8194902  53.0694998  68.9904633
  24.9946657  52.5983041  69.8050255  24.1327690  53.6960764  69.2185893
  25.7751965  47.3467504  75.0367934  25.4401797  47.3068274  75.9325584
  25.2755910  46.6812220  74.5638344  28.7111156  44.6923538  65.3104993
  28.0940327  43.9670366  65.2138046  28.2427645  45.4532898  64.9672068
  20.5009702  38.9108963  64.4326298  19.6239169  38.7897763  64.0688544
  20.9767455  38.1195041  64.1805186  23.6873628  51.2635253  71.6788818
  22.9041150  51.8056933  71.7727043  24.3866374  51.7809233  72.0783059
  26.9970279  37.0729882  74.3223024  27.4938978  36.3199845  74.0024094
  26.2257260  37.1094199  73.7566233  28.0800059  45.8301570  71.8961447
  27.1456338  45.9503032  71.7266151  28.2576728  44.9274036  71.6321457
  23.5805247  39.2147265  74.0494708  23.2103035  38.6618306  74.7375614
  24.0764340  38.6105399  73.4969708  31.4672611  41.6718889  72.4311481
  31.9333063  42.5046880  72.3571784  31.9180111  41.2063870  73.1356740
  29.5348842  48.0162710  69.4297633  29.8108686  47.9019305  70.3391507
  28.6653340  47.6180195  69.3909806  26.5045071  51.1917246  70.3345495
  27.0332838  50.6809701  69.7215657  26.7673291  50.8759776  71.1991028
  15.2288396  40.5050818  69.8739203  15.5241837  39.5961496  69.8206257
  14.3276432  40.4838557  69.5520206  16.9576238  38.1864915  69.9978529
  16.6288944  37.3062294  69.8153634  17.3115608  38.1312584  70.8854918
  20.0718061  38.4737885  70.3654006  20.4114133  39.0023806  69.6432615
  20.5190181  38.8118291  71.1412573  22.0586208  36.9712507  68.5647299
  22.7794571  37.3493760  68.0611016  21.4351512  37.6901384  68.6682277
  26.2017331  37.6757656  69.5005631  26.4180945  38.5582294  69.1994460
  25.7211398  37.2843869  68.7711273  29.5985255  51.1634044  70.9500478
  29.7722132  50.5980467  70.1974331  30.0914146  51.9634939  70.7679968
  22.2049831  36.5060297  71.3944836  22.3265742  35.5776943  71.5935723
  21.9151874  36.5198983  70.4823151  35.4524646  43.9270467  72.5690778
  35.8955792  43.1777792  72.1709901  34.5751156  43.9180604  72.1864510
  30.5860427  50.4800809  68.0497377  31.2811332  51.1007501  68.2684691
  30.9283577  49.6296160  68.3249754  32.4851850  47.9300514  69.5784707
  33.0103174  48.2687787  68.8534027  32.3974203  46.9947530  69.3947842
  21.1779890  48.0914430  69.4860723  21.3268011  48.7749894  68.8327396
  21.9846334  48.0719520  70.0010178  18.9332523  44.1179608  70.4921792
  18.6878565  43.2141938  70.6902002  19.1028438  44.1196758  69.5501270
  18.2028171  39.8507965  67.9907953  17.5097416  39.9252320  67.3347989
  17.9579923  39.0868309  68.5129470  24.6775296  50.5862560  66.9572470
  24.1049263  51.2052748  66.5042942  25.2508089  51.1361922  67.4912392
  27.8972555  50.8699711  68.0881052  28.8303229  50.8045272  68.2913928
  27.8095768  51.7055977  67.6295585  30.5260572  50.1865581  65.0485000
  30.4474204  49.8525444  65.9420758  31.3470239  50.6787349  65.0476472
  25.0622094  41.9223373  64.2988523  26.0081199  41.7929581  64.3676941
  24.6836339  41.1838035  64.7757951  31.0343979  33.5879379  74.2615414
  30.8368800  33.2794467  75.1458746  31.6443684  34.3141018  74.3913344
  23.2465011  39.8473350  64.2343408  22.3396467  39.5506462  64.3106122
  23.5240992  39.5503168  63.3677694  24.8627077  34.3910239  70.3887649
  24.0527805  34.0457324  70.7642895  25.5511494  34.0817783  70.9775261
  26.7917625  33.4688286  72.0111946  27.3448664  33.8883739  72.6701969
  27.0287712  32.5424034  72.0534902  22.0163796  36.7060285  64.3755387
  22.8782960  37.0315183  64.6351204  22.2014140  35.9191781  63.8628453
  30.1696432  35.5788811  71.5190610  29.5895101  36.2373615  71.1368663
  29.9032365  34.7566156  71.1078028  28.6199999  34.9793869  73.7211930
  29.1199777  35.0910403  72.9126249  29.2635607  34.6754922  74.3612739
  28.9521310  37.7388902  70.5746958  28.0647165  38.0238552  70.3567153
  29.3675300  37.5782665  69.7274235  32.3035847  37.7635423  74.2901298
  33.0796237  38.2531875  74.5625914  31.5783981  38.1893477  74.7473167
  34.7408405  38.4763042  75.3475238  35.3352896  38.2358778  74.6368546
  34.8134989  37.7570172  75.9748775  28.0964524  47.5033576  64.6694978
  28.8000374  47.7083579  65.2852634  27.3727173  48.0710338  64.9344062
  28.9262334  43.2543438  70.7897249  28.8697536  43.7111989  69.9504881
  29.4790677  42.4934122  70.6120091  32.7367140  39.0433169  71.6147368
  32.4804074  38.6429805  72.4455576  32.1120008  39.7576963  71.4897507
  30.0051221  47.9416105  66.7193438  30.8396825  47.5097304  66.5370913
  29.8435564  47.7698119  67.6470333  29.6597113  44.4448219  68.0849778
  29.6045917  44.2792490  67.1438222  29.0343169  45.1524252  68.2411967
  22.9693239  33.9456328  67.6635096  22.9571909  34.8898168  67.8203367
  23.8616661  33.7626473  67.3694557  33.1433482  57.1801432  66.0827080
  33.3959003  56.6582953  65.3210543  32.2058041  57.0167578  66.1853764
  34.8466799  53.5729585  66.9859493  35.0141201  54.4409821  67.3529964
  34.6563968  53.7356867  66.0620782  31.4665077  54.3953653  67.2328391
  30.6302389  54.7328339  67.5537666  31.3269846  54.2602633  66.2955528
  34.5529362  59.5209736  63.8560867  33.6456424  59.2898989  64.0552016
  35.0500394  58.7247355  64.0434849  31.3403457  54.2400880  64.4326298
  30.4632923  54.1189681  64.0688544  31.8161210  53.4486958  64.1805186
  26.0682151  55.8342735  69.8739203  26.3635592  54.9253414  69.8206257
  25.1670186  55.8130475  69.5520206  27.7969992  53.5156833  69.9978529
  27.4682698  52.6354212  69.8153634  28.1509363  53.4604502  70.8854918
  32.8979963  52.3004424  68.5647299  33.6188325  52.6785677  68.0611016
  32.2745267  53.0193301  68.6682277  29.0421925  55.1799883  67.9907953
  28.3491170  55.2544238  67.3347989  28.7973677  54.4160226  68.5129470
  35.9015849  57.2515291  64.2988523  36.8474953  57.1221499  64.3676941
  35.5230094  56.5129953  64.7757951  34.0858766  55.1765267  64.2343408
  33.1790221  54.8798380  64.3106122  34.3634747  54.8795085  63.3677694
  32.8557550  52.0352202  64.3755387  33.7176714  52.3607101  64.6351204
  33.0407895  51.2483698  63.8628453  33.8086993  49.2748245  67.6635096
  33.7965663  50.2190085  67.8203367  34.7010415  49.0918391  67.3694557
  15.2024069  10.2797916  54.7766802  14.5512049  10.8651996  54.3900816
  15.9968432  10.8104111  54.8361840  21.4690793   6.7722852  56.0371639
  20.6920236   6.4334011  55.5926801  22.1482274   6.7775475  55.3626604
  12.8741854   5.8688023  50.5806174  11.9668916   5.6377276  50.7797323
  13.3712886   5.0725642  50.7680155  15.7809933  14.5785530  53.5002860
  15.1071632  14.8817227  54.1087818  16.1675755  15.3814610  53.1508317
  13.7506176   7.5109361  52.4418243  13.3125606   6.7945220  51.9823880
  14.4916616   7.7385476  51.8803334  13.9801148  14.7465203  55.7149939
  14.1552904  14.2753246  56.5295562  13.2933936  15.3730969  55.9431200
  17.8717403   6.3693743  52.0350300  17.2546574   5.6440571  51.9383353
  17.4033892   7.1303103  51.6917374  18.7591502  12.8404249  57.6745785
  18.9328379  12.2750672  56.9219637  19.2520393  13.6405144  57.4925275
  19.7466674  12.1571014  54.7742683  20.4417579  12.7777706  54.9929998
  20.0889824  11.3066365  55.0495061  21.6458097   9.6070719  56.3030014
  22.1709421   9.9457992  55.5779334  21.5580450   8.6717734  56.1193149
  13.8381542  12.2632765  53.6817777  13.2655510  12.8822952  53.2288249
  14.4114336  12.8132127  54.2157699  17.0578802  12.5469915  54.8126359
  17.9909475  12.4815477  55.0159235  16.9702015  13.3826182  54.3540892
  19.6866819  11.8635786  51.7730307  19.6080450  11.5295649  52.6666065
  20.5076486  12.3557554  51.7721779  17.2570771   9.1803781  51.3940285
  17.9606621   9.3853784  52.0097941  16.5333419   9.7480543  51.6589369
  19.1657468   9.6186310  53.4438745  20.0003072   9.1867509  53.2616220
  19.0041811   9.4468324  54.3715640  18.8203360   6.1218424  54.8095084
  18.7652164   5.9562695  53.8683528  18.1949416   6.8294457  54.9657274
  27.7941743  20.1355961  63.5393922  28.4320153  20.0162709  62.8357262
  27.6762586  21.0836805  63.5981874  24.6031449  20.0883390  63.4755446
  24.2649961  19.9724454  62.5875981  25.4721218  19.6874555  63.4556453
  20.4618265  21.9418866  59.4652337  19.8983130  21.8508803  58.6968625
  20.3470660  21.1218770  59.9454830  18.0082697  23.4370058  62.3036558
  18.8003989  23.0960882  61.8882857  18.2479347  23.5465033  63.2238711
  26.0417824  25.6089834  54.7766802  25.3905804  26.1943914  54.3900816
  26.8362187  26.1396029  54.8361840  19.9673451  22.6978971  55.1753937
  20.7404327  22.1507958  55.0366812  20.3198850  23.5623220  55.3868398
  22.3039729  18.8571637  52.8072387  22.5565250  18.3353158  52.0455850
  21.3664288  18.6937782  52.9099070  27.3483012  17.8607415  60.6147130
  28.1346101  17.4426839  60.2637547  27.6121716  18.7653508  60.7828778
  27.5193089  23.2980266  55.3135787  26.8838922  23.3714892  56.0256691
  27.1890495  23.8873864  54.6354866  32.7491439  17.7982649  61.5180108
  33.4816611  17.2281865  61.7517938  31.9930794  17.4104249  61.9586614
  22.0236018  20.7599743  55.0096762  21.9072276  20.0844646  55.6777846
  22.1338277  20.2732117  54.1928915  24.3667559  20.2209890  58.7143451
  24.0025766  19.6940511  59.4256372  25.2234674  19.8308359  58.5409936
  24.0073045  15.2499790  53.7104799  24.1747448  16.1180026  54.0775270
  23.8170215  15.4127071  52.7866089  26.7648379  23.7116769  65.3770630
  26.4649102  24.6141807  65.2686437  26.4199438  23.4448952  66.2291783
  20.2160860  20.1630565  61.4107334  19.2911357  20.0306780  61.6185026
  20.4645273  20.9424785  61.9077277  30.1645522  16.2299309  63.0568067
  29.2562400  16.1614717  62.7626828  30.1133118  16.7071254  63.8849892
  23.9862266  17.7057447  54.6951466  23.8661892  18.1514498  55.5336946
  23.2914855  18.0542765  54.1365004  21.7469158  30.4761089  58.3441597
  21.6693188  31.4268914  58.4230078  21.1430802  30.1306961  59.0016524
  29.6847333  18.1778920  55.5231800  30.5965189  18.4106307  55.3479498
  29.1756980  18.7615965  54.9606879  28.2916915  23.1604739  62.9145382
  27.6625777  23.3250453  62.2121450  27.9042577  23.5746348  63.6856346
  32.1706147  24.0959177  60.2689745  31.4857185  24.4758078  59.7186779
  32.2549996  24.7054503  61.0021693  29.4257078  21.7419136  66.8685089
  29.6373974  22.3850896  66.1919470  29.3786827  20.9081452  66.4007019
  23.8444877  22.8979147  60.1795467  24.3083222  23.1766850  59.3900089
  23.5801675  21.9962592  59.9968557  20.7368958  22.4450628  63.1175230
  21.3070315  22.8737897  62.4792715  21.3277070  22.1633213  63.8159416
  22.7813763  19.0202299  56.9885032  23.4837806  19.4723343  57.4558958
  22.4494391  18.3786118  57.6164925  30.5402906  24.6191091  65.0407446
  31.3620350  24.2171278  64.7590128  30.5365309  24.5159325  65.9923562
  18.4753842  17.6430431  59.2485642  17.6785005  17.7549125  59.7669138
  18.2479434  17.9817083  58.3826533  38.6308899  20.9629840  61.3892418
  37.8772608  20.3937238  61.2336422  38.7656441  20.9292504  62.3363052
  24.0207527  25.8343242  57.0647137  23.8853202  26.6794778  57.4931985
  24.5617340  26.0362520  56.3013071  17.4736925  23.3518680  57.6375062
  17.9861445  24.1461930  57.7880627  18.1259638  22.6544970  57.5708664
  19.2831809  26.4684436  59.7197815  19.4598438  27.3902401  59.5318799
  20.0788643  26.1542855  60.1492195  20.4063125  27.9862610  65.7208158
  20.9570550  27.8579673  64.9485152  19.5674601  28.2857499  65.3703050
  27.7457242  26.7369608  69.2228880  27.7275717  27.5578489  68.7309150
  28.6677162  26.6123684  69.4479022  15.4385842  21.6807334  58.4134633
  16.2761064  22.0904343  58.1968340  15.6164109  20.7406776  58.3834827
  27.3350274  19.3482415  54.1018466  26.8196897  20.1187020  54.3406853
  27.0627582  18.6747551  54.7251527  24.9197385  14.1932116  59.1603704
  24.0638981  13.8038966  58.9809343  25.3324336  14.2724077  58.3003490
  32.3084548  22.1014770  56.0371639  31.5313991  21.7625929  55.5926801
  32.9876029  22.1067393  55.3626604  27.1236577  17.2209507  55.9278247
  26.8186712  17.5355656  56.7788390  28.0767019  17.2990927  55.9705580
  25.5683009  23.3799730  57.5771201  25.0404370  22.6452490  57.2644438
  25.0670511  24.1574407  57.3311169  30.5475855  21.5748751  62.6938247
  29.8899529  22.2648012  62.7818376  31.3516254  21.9645183  63.0372233
  29.3581314  19.9293124  60.7442189  29.8713195  20.5623115  61.2463899
  30.0082537  19.3294319  60.3785549  20.6271323  16.0723858  53.9573698
  19.7908636  16.4098544  54.2782972  20.4876093  15.9372837  53.0200835
  23.7135609  21.1979941  50.5806174  22.8062671  20.9669194  50.7797323
  24.2106641  20.4017560  50.7680155  26.6203688  29.9077448  53.5002860
  25.9465387  30.2109145  54.1087818  27.0069510  30.7106528  53.1508317
  25.8362144  17.4042579  62.9900529  24.9184706  17.6257526  62.8322217
  26.2522288  17.4788890  62.1312237  26.6197192  18.8033995  58.1203210
  27.3669011  19.3155392  57.8110332  26.8888782  18.4818047  58.9807603
  24.8923842  21.2992535  55.1030164  23.9835062  21.0151568  55.2002634
  24.9218926  21.7191614  54.2433471  30.1243110  24.9099125  58.8721332
  29.6705437  24.0690035  58.9286522  29.4937076  25.5460523  59.2096112
  29.0676029  15.8391111  60.1021999  28.3298786  15.3268497  60.4332242
  29.3202803  15.3991493  59.2905276  28.5676049  26.7475622  59.8071150
  28.8599023  27.3080679  59.0883515  29.0774670  27.0404183  60.5624309
  15.4612013  19.0198050  59.0845366  15.2636413  18.4267410  58.3596433
  14.9058677  18.7150260  59.8021305  23.4408736  18.9121156  61.2039959
  23.4957346  17.9594992  61.1282436  22.6299938  19.0680595  61.6881258
  24.5899930  22.8401279  52.4418243  24.1519360  22.1237138  51.9823880
  25.3310371  23.0677394  51.8803334  21.3801096  17.5298216  58.9630338
  20.5668962  17.8292386  59.3695530  21.8760090  17.1353905  59.6804820
  23.5309674  27.5255973  60.8964603  23.4885853  27.7516819  59.9673135
  24.4472373  27.2919347  61.0450404  32.7073045  21.1158476  58.4994561
  32.5690943  21.3060072  57.5715750  32.3509264  21.8777859  58.9562612
  32.7342425  23.1835003  63.5105833  33.1678931  23.0910292  64.3588887
  33.4474005  23.1592504  62.8725849  21.6475475  24.4019002  60.6926566
  22.4416073  23.9069322  60.4909141  20.9367167  23.8736865  60.3294271
  26.4670319  26.7837097  65.0438933  26.5207342  27.3528034  65.8116649
  25.5985101  26.9538982  64.6792970  17.9558238  18.5462084  56.7686318
  17.0255826  18.4846539  56.9856280  18.0515710  18.0238036  55.9722960
  17.8743787  15.0716896  59.3564560  18.1350605  15.9862230  59.2473720
  18.6960960  14.6041339  59.5061173  33.5957974  23.2258704  66.0438718
  33.7893864  24.1304514  66.2897993  33.4958592  22.7666123  66.8777303
  24.2246751  24.9748024  64.3724403  24.0857837  24.6066808  65.2450341
  23.4361347  25.4895663  64.2008360  24.8194903  30.0757120  55.7149939
  24.9946659  29.6045163  56.5295562  24.1327691  30.7022886  55.9431200
  25.7751966  24.3529626  61.7613240  25.4401799  24.3130396  62.6570890
  25.2755912  23.6874342  61.2883651  28.7111158  21.6985661  52.0350300
  28.0940328  20.9732489  51.9383353  28.2427646  22.4595021  51.6917374
  30.3665289  26.4084569  69.6956080  30.3077836  25.7243789  69.0286664
  30.7684808  27.1503559  69.2436706  19.3855988  33.2246483  62.4889799
  19.6252586  33.8565007  63.1668818  18.5425185  32.8734523  62.7755159
  20.5009704  15.9171085  51.1571604  19.6239170  15.7959886  50.7933851
  20.9767457  15.1257163  50.9050493  30.3682697  24.3724153  67.9270060
  29.4809475  24.0350075  68.0496459  30.9381248  23.6407184  68.1638826
  23.8983850  29.0325605  64.8931303  23.8254022  29.8380577  65.4050608
  23.4561243  29.2317571  64.0679325  23.6873630  28.2697375  58.4034125
  22.9041152  28.8119056  58.4972349  24.3866375  28.7871355  58.8028366
  26.9970280  14.0792005  61.0468330  27.4938979  13.3261967  60.7269401
  26.2257261  14.1156322  60.4811540  34.8500037  19.7832370  62.6886622
  34.8389913  20.6657086  62.3180555  33.9817417  19.4303921  62.4941159
  26.3582534  28.9312439  67.0489462  27.0710506  29.5659904  66.9765363
  25.8672562  29.0276305  66.2329464  28.0800060  22.8363692  58.6206754
  27.1456339  22.9565155  58.4511458  28.2576729  21.9336159  58.3566764
  23.5805249  16.2209388  60.7740015  23.2103036  15.6680428  61.4620920
  24.0764341  15.6167521  60.2215015  31.4672612  18.6781011  59.1556788
  31.9333064  19.5109003  59.0817090  31.9180112  18.2125993  59.8602046
  29.5348843  25.0224833  56.1542940  29.8108687  24.9081427  57.0636814
  28.6653342  24.6242318  56.1155113  29.2095733  19.2351490  65.6947583
  28.5567183  19.4827398  65.0400036  29.5876113  18.4215629  65.3610060
  26.1702907  29.2711184  59.7975753  26.3525301  28.4532839  60.2603506
  26.9935893  29.4878876  59.3600643  26.5045072  28.1979369  57.0590802
  27.0332839  27.6871823  56.4460964  26.7673292  27.8821899  57.9236335
  17.0062165  26.2143238  64.8026136  17.5915602  25.4686926  64.9354040
  16.8087004  26.5247195  65.6862799  19.8600820  29.2494485  59.8188578
  19.1911196  29.7340613  59.3352618  19.7213690  29.4963706  60.7331956
  24.0006089  31.2838229  66.4171236  24.5524397  31.4469850  67.1820321
  24.3412282  31.8742667  65.7451261  15.2288397  17.5112940  56.5984510
  15.5241839  16.6023619  56.5451564  14.3276433  17.4900680  56.2765512
  27.1374476  29.2320204  63.4034918  27.0125616  28.4309944  62.8945864
  27.7953567  29.7266398  62.9148888  29.2009385  27.0329224  65.0314469
  28.2539720  26.9134576  64.9592795  29.5492158  26.1451723  65.1140730
  16.9576239  15.1927038  56.7223835  16.6288945  14.3124417  56.5398941
  17.3115610  15.1374707  57.6100224  26.2055818  26.8281941  61.2318821
  26.0580780  25.8998648  61.4126391  27.0309311  26.8502031  60.7475896
  20.0718062  15.4800008  57.0899313  20.4114135  16.0085929  56.3677921
  20.5190183  15.8180414  57.8657879  29.8089940  27.6510499  62.3183694
  30.7336487  27.4453361  62.1808145  29.6405243  27.4026901  63.2273035
  22.0586209  13.9774629  55.2892606  22.7794572  14.3555882  54.7856323
  21.4351513  14.6963506  55.3927584  26.2017332  14.6819778  56.2250938
  26.4180947  15.5644416  55.9239766  25.7211399  14.2905992  55.4956580
  29.5985256  28.1696167  57.6745785  29.7722134  27.6042589  56.9219637
  30.0914147  28.9697062  57.4925275  22.2049832  13.5122420  58.1190142
  22.3265744  12.5839066  58.3181030  21.9151875  13.5261106  57.2068458
  35.4524647  20.9332590  59.2936085  35.8955793  20.1839915  58.8955208
  34.5751157  20.9242726  58.9109817  30.5860428  27.4862931  54.7742683
  31.2811333  28.1069624  54.9929998  30.9283579  26.6358283  55.0495061
  32.4851852  24.9362637  56.3030014  33.0103176  25.2749910  55.5779334
  32.3974204  24.0009652  56.1193149  24.1471900  28.8496710  68.4319891
  24.4559027  28.6045857  69.3042590  24.9447382  29.0543349  67.9438761
  24.1692512  31.0034620  60.6625267  23.7297503  30.5110999  61.3558124
  24.9200629  30.4607588  60.4217342  16.6484851  27.1946161  60.6649895
  17.4742871  26.8949933  60.2848539  16.2978903  26.4253783  61.1139684
  21.6166384  26.5472629  62.7347569  20.9946394  25.8843334  62.4349797
  22.2871251  26.5733761  62.0521217  14.8493456  25.1132487  61.6238829
  14.0125365  24.6854662  61.4422830  14.8217102  25.3064931  62.5609620
  21.1779891  25.0976553  56.2106029  21.3268012  25.7812017  55.5572702
  21.9846335  25.0781643  56.7255485  33.7961830  24.8384948  69.1655962
  33.5046638  25.2014929  70.0019423  33.1833961  24.1251957  68.9869294
  34.9957512  22.4037828  61.6858532  35.8304403  22.8427632  61.8496093
  35.1316641  21.9276481  60.8666778  32.0449018  19.9617563  67.6336020
  32.5203139  20.1545209  66.8254871  31.1214583  20.0176749  67.3879404
  18.9332524  21.1241730  57.2167098  18.6878566  20.2204060  57.4147308
  19.1028439  21.1258881  56.2746576  18.2028172  16.8570088  54.7153260
  17.5097417  16.9314443  54.0593296  17.9579924  16.0930431  55.2374777
  24.6775297  27.5924683  53.6817777  24.1049264  28.2114870  53.2288249
  25.2508091  28.1424045  54.2157699  27.8972557  27.8761833  54.8126359
  28.8303230  27.8107395  55.0159235  27.8095770  28.7118100  54.3540892
  30.5260573  27.1927703  51.7730307  30.4474205  26.8587567  52.6666065
  31.3470240  27.6849471  51.7721779  33.2238765  20.0589443  64.9806625
  33.1915085  19.1205443  65.1666309  33.8339388  20.1373479  64.2472450
  25.0622095  18.9285496  51.0233829  26.0081200  18.7991704  51.0922247
  24.6836340  18.1900158  51.5003257  33.3733253  16.8500486  65.0264908
  32.8572302  16.0658943  64.8394837  34.2573202  16.5219203  65.1911428
  31.0343980  10.5941502  60.9860721  30.8368801  10.2856590  61.8704053
  31.6443686  11.3203141  61.1158651  39.0415314  21.1205450  64.1212662
  39.7718703  20.8590738  64.6820365  38.4322260  20.3834172  64.1614730
  37.1230612  19.2613312  64.7187113  36.3963775  19.1269277  64.1103605
  36.7077898  19.5690141  65.5243831  23.2465013  16.8535472  50.9588715
  22.3396468  16.5568585  51.0351428  23.5240994  16.5565290  50.0923001
  24.8627078  11.3972362  57.1132956  24.0527807  11.0519447  57.4888202
  25.5511495  11.0879906  57.7020567  26.7917627  10.4750409  58.7357252
  27.3448665  10.8945862  59.3947276  27.0287713   9.5486157  58.7780208
  22.0163797  13.7122407  51.1000694  22.8782961  14.0377306  51.3596511
  22.2014141  12.9253903  50.5873760  30.1696434  12.5850934  58.2435917
  29.5895103  13.2435738  57.8613969  29.9032366  11.7628278  57.8323334
  28.6200000  11.9855992  60.4457237  29.1199778  12.0972526  59.6371556
  29.2635608  11.6817044  61.0858046  15.9467955  21.7263001  61.2546897
  15.9238644  21.8250688  60.3028781  16.2568592  22.5728152  61.5764064
  28.9521312  14.7451024  57.2992265  28.0647167  15.0300675  57.0812460
  29.3675301  14.5844788  56.4519542  32.3035848  14.7697545  61.0146604
  33.0796238  15.2593998  61.2871221  31.5783982  15.1955599  61.4718474
  34.7408406  15.4825164  62.0720545  35.3352897  15.2420900  61.3613853
  34.8134990  14.7632295  62.6994081  16.9605562  29.3258775  62.3863710
  16.8260030  28.5659176  61.8201708  16.5437624  30.0499675  61.9192499
  28.0964525  24.5095699  51.3940285  28.8000375  24.7145701  52.0097941
  27.3727174  25.0772461  51.6589369  28.9262335  20.2605560  57.5142555
  28.8697537  20.7174112  56.6750188  29.4790678  19.4996245  57.3365398
  32.7367141  16.0495292  58.3392675  32.4804076  15.6491928  59.1700882
  32.1120009  16.7639086  58.2142814  37.0479479  18.7891365  60.8463966
  36.4879037  18.8584555  61.6195528  36.4422983  18.6132350  60.1263462
  20.1174688  30.2228092  62.5982152  20.0007072  31.1673525  62.4960843
  19.2967134  29.9201654  62.9867952  30.0051223  24.9478228  53.4438745
  30.8396826  24.5159427  53.2616220  29.8435565  24.7760242  54.3715640
  29.6597115  21.4510341  54.8095084  29.6045919  21.2854613  53.8683528
  29.0343170  22.1586374  54.9657274  22.9693240  10.9518450  54.3880403
  22.9571910  11.8960290  54.5448674  23.8616662  10.7688596  54.0939864
  21.1429202  30.8756354  65.8138081  22.0456449  30.9079965  66.1304576
  20.9166572  29.9456805  65.8284417  22.8982804  29.6287341  62.4748159
  21.9478435  29.6289202  62.3612532  23.2015290  28.8820075  61.9584194
  38.6335498  35.4647879  63.5393922  39.2713908  35.3454627  62.8357262
  38.5156341  36.4128723  63.5981874  35.4425204  35.4175307  63.4755446
  35.1043715  35.3016372  62.5875981  36.3114972  35.0166472  63.4556453
  31.3012020  37.2710784  59.4652337  30.7376885  37.1800721  58.6968625
  31.1864415  36.4510688  59.9454830  35.9244987  36.5710159  69.4341652
  35.9133628  36.1762957  68.5622156  36.0865626  35.8376232  70.0275423
  28.8476452  38.7661975  62.3036558  29.6397743  38.4252800  61.8882857
  29.0873102  38.8756950  63.2238711  30.8067206  38.0270889  55.1753937
  31.5798082  37.4799876  55.0366812  31.1592604  38.8915138  55.3868398
  32.6452248  39.3547271  68.3820836  32.3542114  40.2592902  68.2667502
  33.2809232  39.3963798  69.0964906  33.5708455  36.7324119  64.9722196
  34.1672027  36.5080142  64.2579159  33.6283426  35.9908865  65.5747643
  33.1433483  34.1863555  52.8072387  33.3959004  33.6645076  52.0455850
  32.2058042  34.0229700  52.9099070  38.1876766  33.1899333  60.6147130
  38.9739855  32.7718756  60.2637547  38.4515470  34.0945425  60.7828778
  43.5885193  33.1274566  61.5180108  44.3210365  32.5573783  61.7517938
  42.8324549  32.7396167  61.9586614  32.8629772  36.0891661  55.0096762
  32.7466030  35.4136564  55.6777846  32.9732032  35.6024035  54.1928915
  35.2061313  35.5501808  58.7143451  34.8419520  35.0232429  59.4256372
  36.0628429  35.1600277  58.5409936  41.1110614  26.8396140  65.9774717
  40.7793938  27.7091551  65.7535932  40.5156227  26.5232424  66.6568747
  34.8466800  30.5791707  53.7104799  35.0141202  31.4471944  54.0775270
  34.6563969  30.7418989  52.7866089  37.6042133  39.0408686  65.3770630
  37.3042856  39.9433725  65.2686437  37.2593193  38.7740870  66.2291783
  31.0554615  35.4922483  61.4107334  30.1305111  35.3598697  61.6185026
  31.3039028  36.2716702  61.9077277  41.0039277  31.5591227  63.0568067
  40.0956154  31.4906635  62.7626828  40.9526873  32.0363171  63.8849892
  28.4163426  35.1355757  62.2451123  28.5455807  35.3890236  63.1590535
  27.7360877  35.7283465  61.9255778  32.5862913  45.8053007  58.3441597
  32.5086943  46.7560832  58.4230078  31.9824557  45.4598879  59.0016524
  35.0780143  32.9780872  71.0002964  34.3013477  33.5374792  70.9905829
  35.7170706  33.4637655  71.5217834  42.8700923  29.7607665  64.8345941
  42.2275304  30.0540198  64.1885736  42.3655852  29.6460585  65.6399138
  33.3326515  35.7866325  70.5620931  34.0741199  36.3251369  70.2855755
  32.6263501  36.4132614  70.7192483  38.8081855  37.9295466  69.1593093
  39.2165211  37.4877876  68.4147725  38.0859116  37.3548093  69.4127286
  35.1612925  32.8668073  66.5326650  36.0074120  33.2907486  66.6761299
  35.1011562  32.2101697  67.2265213  39.1310669  38.4896657  62.9145382
  38.5019532  38.6542371  62.2121450  38.7436331  38.9038266  63.6856346
  43.0099901  39.4251094  60.2689745  42.3250939  39.8049996  59.7186779
  43.0943751  40.0346421  61.0021693  38.3112370  30.5272441  68.1907823
  38.0673302  31.2814502  67.6542099  38.5872301  30.9057789  69.0255070
  40.2650833  37.0711053  66.8685089  40.4767728  37.7142813  66.1919470
  40.2180581  36.2373370  66.4007019  37.8677062  29.6828874  63.7721661
  37.0061541  29.9810128  64.0638399  37.8939496  29.8999273  62.8402694
  34.6838631  38.2271065  60.1795467  35.1476977  38.5058768  59.3900089
  34.4195429  37.3254509  59.9968557  31.5762712  37.7742546  63.1175230
  32.1464069  38.2029815  62.4792715  32.1670824  37.4925131  63.8159416
  33.6207517  34.3494217  56.9885032  34.3231561  34.8015261  57.4558958
  33.2888146  33.7078036  57.6164925  32.0687879  32.9405974  71.3636241
  31.4386539  33.6222254  71.5971638  31.9623967  32.8289055  70.4189380
  27.3632851  32.6077770  62.2902165  26.5731905  32.8635298  61.8142276
  27.8544099  33.4226108  62.3954206  41.3796661  39.9483009  65.0407446
  42.2014104  39.5463196  64.7590128  41.3759064  39.8451243  65.9923562
  29.3147597  32.9722349  59.2485642  28.5178760  33.0841043  59.7669138
  29.0873189  33.3109001  58.3826533  35.1453264  39.4967052  67.1968157
  35.2097697  39.9587459  68.0326329  34.4364188  38.8664417  67.3250467
  25.6470554  32.8608260  64.7217156  25.8978593  33.7455270  64.9874732
  26.1830103  32.6812862  63.9492248  49.4702654  36.2921757  61.3892418
  48.7166362  35.7229155  61.2336422  49.6050195  36.2584422  62.3363052
  34.8601282  41.1635160  57.0647137  34.7246957  42.0086695  57.4931985
  35.4011094  41.3654437  56.3013071  28.3130679  38.6810598  57.6375062
  28.8255200  39.4753848  57.7880627  28.9653392  37.9836888  57.5708664
  30.1225564  41.7976354  59.7197815  30.2992192  42.7194319  59.5318799
  30.9182397  41.4834773  60.1492195  34.2636583  28.6584619  71.3181749
  35.0046296  29.2591772  71.2386211  34.4954505  27.9162256  70.7599791
  29.4077921  33.8440986  69.5959979  29.2931436  32.9426243  69.8967077
  28.5522438  34.0904683  69.2444795  36.4869758  41.7858726  71.1947479
  36.0433612  40.9995105  70.8768384  37.1486972  41.9737877  70.5291370
  31.2456879  43.3154528  65.7208158  31.7964305  43.1871591  64.9485152
  30.4068355  43.6149417  65.3703050  38.5850996  42.0661526  69.2228880
  38.5669472  42.8870407  68.7309150  39.5070916  41.9415601  69.4479022
  35.0424050  39.5805656  70.0652389  35.5752387  38.8193944  69.8351697
  34.5138132  39.2879307  70.8076543  38.2093745  24.6865722  65.5946031
  37.8658015  25.5767363  65.5185141  38.5772708  24.4967379  64.7315616
  26.2779596  37.0099252  58.4134633  27.1154818  37.4196260  58.1968340
  26.4557864  36.0698694  58.3834827  35.7591139  29.5224033  59.1603704
  34.9032736  29.1330884  58.9809343  36.1718091  29.6015994  58.3003490
  37.2890286  27.0570377  63.5595264  36.7855081  27.0200512  62.7463069
  37.5820893  27.9663119  63.6191920  33.5333172  27.1409106  62.5661446
  34.3986168  26.9451915  62.2067335  33.6010681  26.9119458  63.4930802
  43.1478302  37.4306687  56.0371639  42.3707745  37.0917847  55.5926801
  43.8269783  37.4359310  55.3626604  36.4076763  38.7091648  57.5771201
  35.8798125  37.9744408  57.2644438  35.9064266  39.4866324  57.3311169
  41.3869609  36.9040669  62.6938247  40.7293284  37.5939930  62.7818376
  42.1910008  37.2937100  63.0372233  31.1395491  29.3711314  59.9377812
  31.7139243  29.1486496  59.2051005  31.7266473  29.4400009  60.6906414
  40.1975068  35.2585041  60.7442189  40.7106950  35.8915033  61.2463899
  40.8476292  34.6586237  60.3785549  31.4665078  31.4015775  53.9573698
  30.6302390  31.7390462  54.2782972  31.3269848  31.2664755  53.0200835
  33.4418159  26.2452563  58.6652882  32.7882571  25.9301580  58.0409497
  33.3998633  25.6228304  59.3912705  36.6755899  32.7334497  62.9900529
  35.7578460  32.9549444  62.8322217  37.0916042  32.8080807  62.1312237
  37.4590947  34.1325912  58.1203210  38.2062766  34.6447310  57.8110332
  37.7282536  33.8109965  58.9807603  39.9069784  31.1683029  60.1021999
  39.1692541  30.6560415  60.4332242  40.1596557  30.7283410  59.2905276
  39.4069803  42.0767539  59.8071150  39.6992778  42.6372596  59.0883515
  39.9168424  42.3696100  60.5624309  26.3005767  34.3489967  59.0845366
  26.1030167  33.7559328  58.3596433  25.7452431  34.0442177  59.8021305
  34.2802491  34.2413074  61.2039959  34.3351101  33.2886910  61.1282436
  33.4693693  34.3972513  61.6881258  32.2194851  32.8590133  58.9630338
  31.4062716  33.1584304  59.3695530  32.7153845  32.4645822  59.6804820
  34.3703429  42.8547890  60.8964603  34.3279607  43.0808737  59.9673135
  35.2866128  42.6211265  61.0450404  37.8169062  33.3231958  67.7945232
  38.1718450  33.5503431  68.6539698  38.4641194  33.6550335  67.1722487
  43.5466799  36.4450394  58.4994561  43.4084698  36.6351990  57.5715750
  43.1903018  37.2069777  58.9562612  31.7108926  30.4308489  64.5791573
  32.3508305  30.2897248  63.8814536  30.8786456  30.1443002  64.2030175
  43.5736179  38.5126921  63.5105833  44.0072686  38.4202210  64.3588887
  44.2867760  38.4884421  62.8725849  32.4869229  39.7310919  60.6926566
  33.2809828  39.2361240  60.4909141  31.7760922  39.2028783  60.3294271
  37.3064074  42.1129015  65.0438933  37.3601096  42.6819951  65.8116649
  36.4378855  42.2830900  64.6792970  28.7951993  33.8754001  56.7686318
  27.8649581  33.8138457  56.9856280  28.8909465  33.3529954  55.9722960
  28.7137542  30.4008814  59.3564560  28.9744359  31.3154147  59.2473720
  29.5354714  29.9333257  59.5061173  30.1862467  31.8146571  66.5263384
  30.8585521  31.6063933  65.8776033  29.3592254  31.6168657  66.0868617
  44.4351729  38.5550622  66.0438718  44.6287619  39.4596432  66.2897993
  44.3352347  38.0958041  66.8777303  36.0888039  28.4408512  68.5429045
  35.4415954  29.1398462  68.4493522  36.8589055  28.8744656  68.9105294
  39.4966837  38.7057364  71.6179599  39.3452344  38.4767916  70.7009682
  39.4871517  39.6627966  71.6310944  36.2652174  36.2789277  66.6025865
  37.1944234  36.4300437  66.4294832  35.8443204  36.3673298  65.7474512
  35.0640505  40.3039941  64.3724403  34.9251591  39.9358726  65.2450341
  34.2755102  40.8187581  64.2008360  35.6588657  45.4049038  55.7149939
  35.8340413  44.9337081  56.5295562  34.9721445  46.0314804  55.9431200
  36.6145721  39.6821544  61.7613240  36.2795553  39.6422314  62.6570890
  36.1149666  39.0166260  61.2883651  30.5889965  35.0889174  67.2865822
  30.4509762  34.3569413  67.8877361  31.4994888  34.9998074  67.0050009
  33.2172265  34.8009133  66.7749501  33.9271884  34.1602326  66.7336120
  33.1741573  35.0522028  67.6975682  41.2059044  41.7376487  69.6956080
  41.1471590  41.0535707  69.0286664  41.6078562  42.4795477  69.2436706
  31.9301199  31.7874351  68.5945141  31.3938556  31.3365090  69.2466737
  31.3417908  31.9220260  67.8515605  30.2249743  48.5538401  62.4889799
  30.4646341  49.1856925  63.1668818  29.3818939  48.2026441  62.7755159
  41.2076451  39.7016071  67.9270060  40.3203230  39.3641993  68.0496459
  41.7775002  38.9699102  68.1638826  22.8605598  36.0340163  61.2513112
  23.5476638  35.7201893  60.6634127  22.7053727  36.9381527  60.9780363
  27.6640320  30.9230359  65.6798135  27.5798509  30.3156029  64.9448545
  26.8423027  31.4139377  65.6807632  34.7377605  44.3617523  64.8931303
  34.6647776  45.1672495  65.4050608  34.2954998  44.5609489  64.0679325
  34.5267384  43.5989293  58.4034125  33.7434906  44.1410973  58.4972349
  35.2260129  44.1163273  58.8028366  37.8364034  29.4083923  61.0468330
  38.3332734  28.6553885  60.7269401  37.0651016  29.4448239  60.4811540
  45.6893792  35.1124288  62.6886622  45.6783668  35.9949004  62.3180555
  44.8211171  34.7595839  62.4941159  37.1976288  44.2604357  67.0489462
  37.9104260  44.8951822  66.9765363  36.7066317  44.3568223  66.2329464
  38.9193815  38.1655610  58.6206754  37.9850094  38.2857072  58.4511458
  39.0970483  37.2628077  58.3566764  34.4199003  31.5501306  60.7740015
  34.0496791  30.9972346  61.4620920  34.9158095  30.9459439  60.2215015
  42.3066366  34.0072929  59.1556788  42.7726819  34.8400921  59.0817090
  42.7573867  33.5417911  59.8602046  32.2488202  42.0098801  67.8695033
  32.9497661  42.6435284  68.0224427  31.7783317  42.3513532  67.1090672
  40.2783029  26.3753516  63.1947689  39.3646109  26.6057743  63.3629896
  40.7076131  26.4591960  64.0461722  40.0489488  34.5643408  65.6947583
  39.3960938  34.8119315  65.0400036  40.4269867  33.7507546  65.3610060
  37.0096661  44.6003101  59.7975753  37.1919056  43.7824757  60.2603506
  37.8329647  44.8170793  59.3600643  37.3438827  43.5271286  57.0590802
  37.8726593  43.0163741  56.4460964  37.6067047  43.2113817  57.9236335
  36.0977061  35.3063219  72.1813620  35.4217698  35.2057348  72.8515996
  36.9204694  35.1502433  72.6449617  27.8455920  41.5435156  64.8026136
  28.4309356  40.7978844  64.9354040  27.6480758  41.8539112  65.6862799
  30.6994575  44.5786403  59.8188578  30.0304950  45.0632531  59.3352618
  30.5607445  44.8255623  60.7331956  22.4373574  34.1140756  63.5230579
  22.4757674  33.5804347  64.3167697  21.9313867  33.5875961  62.9041556
  34.8399843  46.6130147  66.4171236  35.3918151  46.7761768  67.1820321
  35.1806037  47.2034584  65.7451261  29.8164337  28.9605296  67.0193121
  29.8805663  29.8220127  66.6070519  29.7531457  28.3479298  66.2865479
  29.2916609  31.0328429  70.6666155  29.9188648  30.6505506  71.2803680
  28.4344528  30.8142631  71.0321848  39.6910718  41.4391404  72.2719891
  40.2350622  42.0521362  71.7774846  39.1097563  41.9970982  72.7886904
  26.0682152  32.8404858  56.5984510  26.3635593  31.9315536  56.5451564
  25.1670188  32.8192597  56.2765512  37.9768231  44.5612122  63.4034918
  37.8519370  43.7601862  62.8945864  38.6347322  45.0558315  62.9148888
  29.5976399  30.9160855  62.5812059  28.8762985  31.5296822  62.4419532
  30.3869655  31.4518619  62.5028705  40.0403139  42.3621142  65.0314469
  39.0933475  42.2426493  64.9592795  40.3885912  41.4743640  65.1140730
  32.4002712  28.2515281  68.8552710  32.9237114  28.4977578  69.6179020
  32.1815046  29.0835316  68.4355848  27.7969994  30.5218956  56.7223835
  27.4682700  29.6416335  56.5398941  28.1509364  30.4666624  57.6100224
  37.0449572  42.1573858  61.2318821  36.8974535  41.2290566  61.4126391
  37.8703066  42.1793949  60.7475896  30.9111817  30.8091925  57.0899313
  31.2507889  31.3377847  56.3677921  31.3583937  31.1472332  57.8657879
  40.6483694  42.9802417  62.3183694  41.5730242  42.7745278  62.1808145
  40.4798998  42.7318818  63.2273035  33.6055258  29.1928976  66.5402381
  33.2652078  28.3936789  66.9423061  32.8994264  29.4930687  65.9679214
  34.2571729  26.2778289  64.9929704  35.0797799  25.8038767  64.8708594
  34.5009793  27.0568772  65.4928390  32.8979964  29.3066547  55.2892606
  33.6188326  29.6847800  54.7856323  32.2745268  30.0255424  55.3927584
  37.0411087  30.0111696  56.2250938  37.2574701  30.8936334  55.9239766
  36.5605154  29.6197909  55.4956580  31.7810308  32.9697409  62.8021683
  31.6354889  33.2837712  63.6945964  31.3035512  33.5882310  62.2492581
  33.6406691  29.9599957  62.8502572  33.6268260  29.0641051  62.5134870
  34.3579119  29.9670621  63.4840858  35.4932822  30.3937297  64.8955700
  35.2350600  31.3154368  64.8940030  34.9617862  29.9967732  65.5856164
  40.4379010  43.4988085  57.6745785  40.6115888  42.9334507  56.9219637
  40.9307902  44.2988979  57.4925275  26.2555970  35.5102754  65.7409344
  25.7109438  36.2862562  65.8729618  27.1335320  35.8573558  65.5828465
  33.0443587  28.8414338  58.1190142  33.1659498  27.9130984  58.3181030
  32.7545629  28.8553023  57.2068458  46.2918402  36.2624508  59.2936085
  46.7349548  35.5131833  58.8955208  45.4144912  36.2534644  58.9109817
  41.4254183  42.8154849  54.7742683  42.1205088  43.4361542  54.9929998
  41.7677333  41.9650200  55.0495061  27.0421992  34.6372650  68.6339501
  26.3003728  34.7855285  69.2204131  26.7214736  34.8980916  67.7706250
  34.9865655  44.1788628  68.4319891  35.2952781  43.9337775  69.3042590
  35.7841137  44.3835267  67.9438761  35.0086267  46.3326538  60.6625267
  34.5691257  45.8402916  61.3558124  35.7594384  45.7899505  60.4217342
  27.4878606  42.5238079  60.6649895  28.3136626  42.2241851  60.2848539
  27.1372658  41.7545701  61.1139684  32.4560139  41.8764547  62.7347569
  31.8340148  41.2135252  62.4349797  33.1265006  41.9025679  62.0521217
  25.6887211  40.4424405  61.6238829  24.8519119  40.0146579  61.4422830
  25.6610856  40.6356848  62.5609620  32.5284666  30.3546335  72.3280075
  32.5772822  31.2308458  71.9457844  33.0707181  29.8123728  71.7551718
  43.0139512  40.8987458  71.6081212  42.2235056  40.8811597  71.0685711
  42.7772867  41.4375752  72.3630249  43.1337387  37.7479925  68.9213941
  43.1835392  37.5829932  69.8629463  43.0251311  36.8807184  68.5311821
  32.0173646  40.4268470  56.2106029  32.1661766  41.1103935  55.5572702
  32.8240089  40.4073560  56.7255485  40.4241150  33.7310853  70.2373247
  41.3251012  33.5917317  69.9457245  40.4989124  33.8965307  71.1771425
  34.7583955  31.1077707  69.0826434  33.8887264  31.4011273  68.8109022
  34.9943435  31.6918152  69.8033697  44.6355584  40.1676866  69.1655962
  44.3440392  40.5306847  70.0019423  44.0227715  39.4543874  68.9869294
  45.8351266  37.7329746  61.6858532  46.6698158  38.1719550  61.8496093
  45.9710395  37.2568399  60.8666778  42.8842772  35.2909481  67.6336020
  43.3596894  35.4837127  66.8254871  41.9608338  35.3468666  67.3879404
  29.7726279  36.4533648  57.2167098  29.5272321  35.5495978  57.4147308
  29.9422193  36.4550798  56.2746576  37.4622989  27.3257324  66.5991854
  37.9804933  28.0618351  66.2738342  37.1078122  27.6321318  67.4338613
  29.0421926  32.1862005  54.7153260  28.3491171  32.2606360  54.0593296
  28.7973678  31.4222349  55.2374777  41.5844441  32.1675241  65.8664326
  42.5361864  32.2673338  65.8876550  41.4147892  31.3753509  66.3762410
  39.6058821  29.2530824  66.0523727  39.0108753  29.5335837  65.3570215
  39.3208517  29.7424725  66.8240468  44.0632519  35.3881360  64.9806625
  44.0308839  34.4497361  65.1666309  44.6733143  35.4665397  64.2472450
  44.2127008  32.1792404  65.0264908  43.6966056  31.3950861  64.8394837
  45.0966956  31.8511120  65.1911428  49.8809069  36.4497367  64.1212662
  50.6112457  36.1882655  64.6820365  49.2716014  35.7126089  64.1614730
  47.9624366  34.5905230  64.7187113  47.2357530  34.4561195  64.1103605
  47.5471653  34.8982058  65.5243831  35.7854542  38.3095160  72.4834486
  36.7057552  38.4873759  72.6774533  35.7504125  37.3651205  72.3314186
  25.0036707  33.5033753  61.4087761  24.6839492  32.6499061  61.1162135
  24.4570136  33.7182331  62.1645728  28.7816615  36.2196194  65.1257267
  29.0002625  37.1513302  65.1445301  29.1942389  35.8604169  65.9112071
  35.7020833  26.7264280  57.1132956  34.8921561  26.3811364  57.4888202
  36.3905250  26.4171823  57.7020567  33.6544480  31.7929400  74.5160016
  33.5541207  32.7423757  74.4472107  33.4366022  31.4647639  73.6436086
  24.8724967  37.1236665  63.3780883  24.1788439  36.7090617  62.8650837
  25.6197958  37.1657201  62.7814301  33.5175750  35.2226539  73.3325078
  33.0342832  36.0226899  73.5388967  33.6036689  35.2334484  72.3792522
  26.7861710  37.0554918  61.2546897  26.7632398  37.1542606  60.3028781
  27.0962346  37.9020069  61.5764064  29.4449088  39.1131074  65.3693512
  30.3992341  39.0815016  65.3023443  29.2461611  38.6521697  66.1843738
  30.0348470  37.6832190  67.9364309  30.8541359  38.1776268  67.9599147
  30.3085278  36.7664158  67.9081877  39.7915066  30.0742942  57.2992265
  38.9040921  30.3592592  57.0812460  40.2069055  29.9136705  56.4519542
  43.1429602  30.0989463  61.0146604  43.9189992  30.5885915  61.2871221
  42.4177736  30.5247517  61.4718474  45.5802161  30.8117082  62.0720545
  46.1746652  30.5712818  61.3613853  45.6528745  30.0924213  62.6994081
  27.7999317  44.6550693  62.3863710  27.6653785  43.8951094  61.8201708
  27.3831379  45.3791593  61.9192499  39.7656090  35.5897478  57.5142555
  39.7091291  36.0466029  56.6750188  40.3184432  34.8288162  57.3365398
  47.8873234  34.1183283  60.8463966  47.3272792  34.1876472  61.6195528
  47.2816737  33.9424268  60.1263462  30.9568443  45.5520010  62.5982152
  30.8400827  46.4965443  62.4960843  30.1360889  45.2493572  62.9867952
  25.2883384  32.0170323  68.6356507  25.9342248  31.5069277  69.1243732
  25.0800535  32.7539005  69.2099932  37.8136776  39.0851171  74.1348647
  38.6827936  39.2591823  73.7735282  37.3343528  39.9045588  74.0124376
  33.8086995  26.2810368  54.3880403  33.7965665  27.2252208  54.5448674
  34.7010417  26.0980513  54.0939864  31.9822957  46.2048272  65.8138081
  32.8850203  46.2371882  66.1304576  31.7560327  45.2748723  65.8284417
  33.7376559  44.9579258  62.4748159  32.7872190  44.9581120  62.3612532
  34.0409045  44.2111993  61.9584194  49.4729252  50.7939797  63.5393922
  50.1107662  50.6746544  62.8357262  49.3550095  51.7420641  63.5981874
  46.2818958  50.7467225  63.4755446  45.9437470  50.6308290  62.5875981
  47.1508727  50.3458390  63.4556453  42.1405774  52.6002701  59.4652337
  41.5770639  52.5092638  58.6968625  42.0258169  51.7802606  59.9454830
  39.6870206  54.0953893  62.3036558  40.4791498  53.7544718  61.8882857
  39.9266856  54.2048868  63.2238711  47.7205333  56.2673669  54.7766802
  47.0693313  56.8527749  54.3900816  48.5149696  56.7979864  54.8361840
  41.6460960  53.3562806  55.1753937  42.4191836  52.8091793  55.0366812
  41.9986359  54.2207056  55.3868398  44.4102209  52.0616037  64.9722196
  45.0065782  51.8372059  64.2579159  44.4677181  51.3200782  65.5747643
  43.9827238  49.5155472  52.8072387  44.2352758  48.9936994  52.0455850
  43.0451797  49.3521618  52.9099070  49.0270521  48.5191251  60.6147130
  49.8133610  48.1010674  60.2637547  49.2909225  49.4237343  60.7828778
  49.1980598  53.9564101  55.3135787  48.5626431  54.0298728  56.0256691
  48.8678004  54.5457700  54.6354866  54.4278948  48.4566484  61.5180108
  55.1604120  47.8865701  61.7517938  53.6718303  48.0688084  61.9586614
  43.7023527  51.4183578  55.0096762  43.5859785  50.7428482  55.6777846
  43.8125786  50.9315952  54.1928915  46.0455067  50.8793725  58.7143451
  45.6813275  50.3524346  59.4256372  46.9022183  50.4892194  58.5409936
  51.9504368  42.1688058  65.9774717  51.6187693  43.0383469  65.7535932
  51.3549982  41.8524342  66.6568747  45.6860554  45.9083625  53.7104799
  45.8534957  46.7763861  54.0775270  45.4957724  46.0710907  52.7866089
  41.8948369  50.8214401  61.4107334  40.9698866  50.6890615  61.6185026
  42.1432782  51.6008620  61.9077277  51.8433031  46.8883144  63.0568067
  50.9349909  46.8198553  62.7626828  51.7920627  47.3655089  63.8849892
  45.6649775  48.3641283  54.6951466  45.5449401  48.8098333  55.5336946
  44.9702364  48.7126600  54.1365004  39.2557180  50.4647674  62.2451123
  39.3849561  50.7182153  63.1590535  38.5754631  51.0575382  61.9255778
  43.4256667  61.1344924  58.3441597  43.3480697  62.0852749  58.4230078
  42.8218311  60.7890797  59.0016524  53.7094678  45.0899583  64.8345941
  53.0669058  45.3832116  64.1885736  53.2049606  44.9752503  65.6399138
  51.3634842  48.8362756  55.5231800  52.2752698  49.0690143  55.3479498
  50.8544489  49.4199800  54.9606879  48.7070816  45.0120792  63.7721661
  47.8455295  45.3102045  64.0638399  48.7333251  45.2291191  62.8402694
  45.5232386  53.5562982  60.1795467  45.9870731  53.8350685  59.3900089
  45.2589184  52.6546427  59.9968557  42.4156467  53.1034464  63.1175230
  42.9857824  53.5321732  62.4792715  43.0064579  52.8217049  63.8159416
  44.4601272  49.6786135  56.9885032  45.1625315  50.1307178  57.4558958
  44.1281900  49.0369954  57.6164925  38.2026606  47.9369687  62.2902165
  37.4125660  48.1927216  61.8142276  38.6937853  48.7518025  62.3954206
  40.1541351  48.3014267  59.2485642  39.3572514  48.4132961  59.7669138
  39.9266943  48.6400919  58.3826533  36.4864309  48.1900178  64.7217156
  36.7372347  49.0747188  64.9874732  37.0223857  48.0104779  63.9492248
  45.6995036  56.4927077  57.0647137  45.5640711  57.3378613  57.4931985
  46.2404849  56.6946355  56.3013071  39.1524434  54.0102515  57.6375062
  39.6648954  54.8045766  57.7880627  39.8047147  53.3128806  57.5708664
  40.9619318  57.1268272  59.7197815  41.1385947  58.0486236  59.5318799
  41.7576152  56.8126691  60.1492195  49.0487500  40.0157639  65.5946031
  48.7051769  40.9059281  65.5185141  49.4166463  39.8259297  64.7315616
  37.1173351  52.3391170  58.4134633  37.9548573  52.7488178  58.1968340
  37.2951618  51.3990612  58.3834827  49.0137783  50.0066250  54.1018466
  48.4984406  50.7770855  54.3406853  48.7415091  49.3331386  54.7251527
  46.5984894  44.8515951  59.1603704  45.7426490  44.4622801  58.9809343
  47.0111845  44.9307912  58.3003490  48.1284040  42.3862294  63.5595264
  47.6248836  42.3492429  62.7463069  48.4214647  43.2955037  63.6191920
  44.3726926  42.4701024  62.5661446  45.2379923  42.2743833  62.2067335
  44.4404435  42.2411376  63.4930802  53.9872057  52.7598605  56.0371639
  53.2101500  52.4209764  55.5926801  54.6663538  52.7651228  55.3626604
  48.8024086  47.8793342  55.9278247  48.4974221  48.1939492  56.7788390
  49.7554528  47.9574762  55.9705580  47.2470518  54.0383566  57.5771201
  46.7191879  53.3036325  57.2644438  46.7458020  54.8158242  57.3311169
  41.9789245  44.7003232  59.9377812  42.5532997  44.4778413  59.2051005
  42.5660228  44.7691926  60.6906414  51.0368822  50.5876959  60.7442189
  51.5500704  51.2206951  61.2463899  51.6870046  49.9878154  60.3785549
  42.3058832  46.7307693  53.9573698  41.4696145  47.0682380  54.2782972
  42.1663602  46.5956673  53.0200835  44.2811913  41.5744481  58.6652882
  43.6276325  41.2593498  58.0409497  44.2392387  40.9520221  59.3912705
  45.3923118  51.8563776  50.5806174  44.4850180  51.6253029  50.7797323
  45.8894150  51.0601395  50.7680155  48.2991197  60.5661283  53.5002860
  47.6252895  60.8692980  54.1087818  48.6857019  61.3690363  53.1508317
  47.5149653  48.0626414  62.9900529  46.5972215  48.2841361  62.8322217
  47.9309797  48.1372725  62.1312237  48.2984701  49.4617830  58.1203210
  49.0456520  49.9739227  57.8110332  48.5676291  49.1401883  58.9807603
  46.5711351  51.9576371  55.1030164  45.6622571  51.6735404  55.2002634
  46.6006435  52.3775449  54.2433471  51.8030619  55.5682960  58.8721332
  51.3492946  54.7273870  58.9286522  51.1724585  56.2044359  59.2096112
  50.7463538  46.4974946  60.1021999  50.0086295  45.9852333  60.4332242
  50.9990312  46.0575328  59.2905276  50.8475166  39.2751198  60.6963768
  51.1534042  38.4148562  60.4089683  51.5727770  39.8668819  60.4962762
  37.1399522  49.6781885  59.0845366  36.9423921  49.0851246  58.3596433
  36.5846186  49.3734095  59.8021305  45.1196245  49.5704991  61.2039959
  45.1744855  48.6178828  61.1282436  44.3087447  49.7264431  61.6881258
  46.2687439  53.4985115  52.4418243  45.8306869  52.7820973  51.9823880
  47.0097880  53.7261229  51.8803334  43.0588605  48.1882051  58.9630338
  42.2456471  48.4876222  59.3695530  43.5547599  47.7937740  59.6804820
  45.2097183  58.1839808  60.8964603  45.1673362  58.4100654  59.9673135
  46.1259882  57.9503183  61.0450404  54.3860554  51.7742312  58.4994561
  54.2478452  51.9643908  57.5715750  54.0296773  52.5361694  58.9562612
  42.5502680  45.7600407  64.5791573  43.1902059  45.6189166  63.8814536
  41.7180211  45.4734920  64.2030175  43.3262984  55.0602837  60.6926566
  44.1203582  54.5653157  60.4909141  42.6154676  54.5320700  60.3294271
  39.6345747  49.2045919  56.7686318  38.7043335  49.1430374  56.9856280
  39.7303219  48.6821872  55.9722960  39.5531296  45.7300732  59.3564560
  39.8138114  46.6446065  59.2473720  40.3748469  45.2625174  59.5061173
  41.0256222  47.1438489  66.5263384  41.6979275  46.9355851  65.8776033
  40.1986008  46.9460575  66.0868617  46.4982412  60.7340956  55.7149939
  46.6734168  60.2628999  56.5295562  45.8115200  61.3606722  55.9431200
  47.4539475  55.0113462  61.7613240  47.1189308  54.9714232  62.6570890
  46.9543421  54.3458178  61.2883651  41.4283719  50.4181092  67.2865822
  41.2903517  49.6861331  67.8877361  42.3388642  50.3289992  67.0050009
  50.3898667  52.3569496  52.0350300  49.7727837  51.6316324  51.9383353
  49.9215155  53.1178856  51.6917374  42.7694954  47.1166269  68.5945141
  42.2332311  46.6657008  69.2466737  42.1811662  47.2512178  67.8515605
  42.1797213  46.5754920  51.1571604  41.3026679  46.4543721  50.7933851
  42.6554966  45.7840999  50.9050493  33.6999353  51.3632080  61.2513112
  34.3870393  51.0493810  60.6634127  33.5447481  52.2673445  60.9780363
  38.5034075  46.2522277  65.6798135  38.4192264  45.6447946  64.9448545
  37.6816781  46.7431295  65.6807632  45.3661139  58.9281211  58.4034125
  44.5828661  59.4702891  58.4972349  46.0653884  59.4455190  58.8028366
  48.6757789  44.7375840  61.0468330  49.1726488  43.9845803  60.7269401
  47.9044770  44.7740157  60.4811540  49.7587569  53.4947527  58.6206754
  48.8243848  53.6148990  58.4511458  49.9364238  52.5919994  58.3566764
  45.2592758  46.8793223  60.7740015  44.8890545  46.3264264  61.4620920
  45.7551850  46.2751357  60.2215015  53.1460121  49.3364847  59.1556788
  53.6120573  50.1692838  59.0817090  53.5967621  48.8709828  59.8602046
  51.2136352  55.6808668  56.1542940  51.4896196  55.5665263  57.0636814
  50.3440851  55.2826153  56.1155113  51.1176784  41.7045434  63.1947689
  50.2039863  41.9349661  63.3629896  51.5469885  41.7883878  64.0461722
  48.1832581  58.8563204  57.0590802  48.7120348  58.3455659  56.4460964
  48.4460801  58.5405734  57.9236335  41.5388329  59.9078321  59.8188578
  40.8698705  60.3924448  59.3352618  41.4001199  60.1547541  60.7331956
  33.2767329  49.4432674  63.5230579  33.3151428  48.9096264  64.3167697
  32.7707622  48.9167879  62.9041556  40.6558091  44.2897214  67.0193121
  40.7199418  45.1512045  66.6070519  40.5925211  43.6771216  66.2865479
  36.9075906  48.1696776  56.5984510  37.2029348  47.2607454  56.5451564
  36.0063942  48.1484515  56.2765512  40.4370153  46.2452772  62.5812059
  39.7156739  46.8588740  62.4419532  41.2263409  46.7810537  62.5028705
  43.2396467  43.5807199  68.8552710  43.7630869  43.8269495  69.6179020
  43.0208800  44.4127234  68.4355848  38.6363748  45.8510873  56.7223835
  38.3076454  44.9708252  56.5398941  38.9903119  45.7958542  57.6100224
  41.7505571  46.1383843  57.0899313  42.0901644  46.6669764  56.3677921
  42.1977692  46.4764249  57.8657879  44.4449012  44.5220894  66.5402381
  44.1045832  43.7228707  66.9423061  43.7388018  44.8222605  65.9679214
  45.0965484  41.6070206  64.9929704  45.9191553  41.1330684  64.8708594
  45.3403547  42.3860690  65.4928390  43.7373718  44.6358465  55.2892606
  44.4582081  45.0139718  54.7856323  43.1139022  45.3547342  55.3927584
  47.8804841  45.3403614  56.2250938  48.0968456  46.2228252  55.9239766
  47.3998908  44.9489827  55.4956580  42.6204063  48.2989327  62.8021683
  42.4748643  48.6129630  63.6945964  42.1429266  48.9174227  62.2492581
  44.4800445  45.2891875  62.8502572  44.4662014  44.3932968  62.5134870
  45.1972874  45.2962539  63.4840858  46.3326576  45.7229215  64.8955700
  46.0744354  46.6446286  64.8940030  45.8011617  45.3259650  65.5856164
  51.2772765  58.8280002  57.6745785  51.4509642  58.2626425  56.9219637
  51.7701656  59.6280897  57.4925275  37.0949725  50.8394671  65.7409344
  36.5503193  51.6154479  65.8729618  37.9729075  51.1865476  65.5828465
  43.8837341  44.1706255  58.1190142  44.0053253  43.2422901  58.3181030
  43.5939384  44.1844941  57.2068458  46.7528532  41.8561166  61.2556862
  46.7750229  41.9200499  60.3008842  47.1696591  41.0165674  61.4497368
  57.1312156  51.5916425  59.2936085  57.5743302  50.8423750  58.8955208
  56.2538666  51.5826562  58.9109817  52.2647937  58.1446767  54.7742683
  52.9598842  58.7653459  54.9929998  52.6071088  57.2942118  55.0495061
  37.8815747  49.9664568  68.6339501  37.1397483  50.1147203  69.2204131
  37.5608491  50.2272833  67.7706250  54.1639361  55.5946472  56.3030014
  54.6890685  55.9333745  55.5779334  54.0761713  54.6593488  56.1193149
  38.3272360  57.8529996  60.6649895  39.1530380  57.5533768  60.2848539
  37.9766412  57.0837619  61.1139684  43.2953893  57.2056465  62.7347569
  42.6733903  56.5427170  62.4349797  43.9658760  57.2317596  62.0521217
  36.5280965  55.7716323  61.6238829  35.6912874  55.3438497  61.4422830
  36.5004611  55.9648766  62.5609620  42.8567400  55.7560388  56.2106029
  43.0055521  56.4395852  55.5572702  43.6633844  55.7365478  56.7255485
  40.6120033  51.7825566  57.2167098  40.3666075  50.8787896  57.4147308
  40.7815948  51.7842716  56.2746576  48.3016743  42.6549242  66.5991854
  48.8198687  43.3910269  66.2738342  47.9471876  42.9613235  67.4338613
  39.8815681  47.5153923  54.7153260  39.1884926  47.5898278  54.0593296
  39.6367433  46.7514267  55.2374777  48.5529337  39.0749524  62.1192751
  48.8331091  38.4072714  62.7453177  49.3379944  39.2678620  61.6067414
  46.3562806  58.2508518  53.6817777  45.7836773  58.8698705  53.2288249
  46.9295600  58.8007880  54.2157699  50.4452575  44.5822742  66.0523727
  49.8502507  44.8627754  65.3570215  50.1602272  45.0716643  66.8240468
  49.5760066  58.5345668  54.8126359  50.5090739  58.4691230  55.0159235
  49.4883279  59.3701935  54.3540892  52.2048082  57.8511539  51.7730307
  52.1261714  57.5171402  52.6666065  53.0257749  58.3433307  51.7721779
  46.7409604  49.5869331  51.0233829  47.6868709  49.4575539  51.0922247
  46.3623849  48.8483993  51.5003257  52.7131489  41.2525337  60.9860721
  52.5156310  40.9440425  61.8704053  53.3231195  41.9786976  61.1158651
  44.9252522  47.5119307  50.9588715  44.0183977  47.2152420  51.0351428
  45.2028503  47.2149126  50.0923001  35.8430462  48.8325671  61.4087761
  35.5233246  47.9790979  61.1162135  35.2963890  49.0474249  62.1645728
  39.6210369  51.5488112  65.1257267  39.8396379  52.4805220  65.1445301
  40.0336143  51.1896086  65.9112071  46.5414587  42.0556197  57.1132956
  45.7315316  41.7103282  57.4888202  47.2299004  41.7463741  57.7020567
  48.4705136  41.1334244  58.7357252  49.0236174  41.5529697  59.3947276
  48.7075222  40.2069992  58.7780208  43.6951306  44.3706243  51.1000694
  44.5570470  44.6961141  51.3596511  43.8801650  43.5837739  50.5873760
  35.7118722  52.4528582  63.3780883  35.0182193  52.0382535  62.8650837
  36.4591713  52.4949119  62.7814301  51.8483943  43.2434769  58.2435917
  51.2682612  43.9019573  57.8613969  51.5819875  42.4212114  57.8323334
  50.2987509  42.6439827  60.4457237  50.7987287  42.7556361  59.6371556
  50.9423117  42.3400880  61.0858046  37.6255464  52.3846836  61.2546897
  37.6026153  52.4834523  60.3028781  37.9356101  53.2311987  61.5764064
  40.2842842  54.4422991  65.3693512  41.2386096  54.4106934  65.3023443
  40.0855366  53.9813615  66.1843738  50.6308821  45.4034860  57.2992265
  49.7434676  45.6884510  57.0812460  51.0462810  45.2428623  56.4519542
  53.9823357  45.4281381  61.0146604  54.7583747  45.9177833  61.2871221
  53.2571491  45.8539435  61.4718474  56.4195915  46.1409000  62.0720545
  57.0140406  45.9004736  61.3613853  56.4922499  45.4216130  62.6994081
  38.6393071  59.9842611  62.3863710  38.5047539  59.2243012  61.8201708
  38.2225133  60.7083511  61.9192499  49.7752034  55.1679534  51.3940285
  50.4787884  55.3729537  52.0097941  49.0514683  55.7356296  51.6589369
  50.6049844  50.9189395  57.5142555  50.5485046  51.3757947  56.6750188
  51.1578187  50.1580080  57.3365398  54.4154650  46.7079127  58.3392675
  54.1591585  46.3075763  59.1700882  53.7907518  47.4222921  58.2142814
  51.6838732  55.6062063  53.4438745  52.5184335  55.1743262  53.2616220
  51.5223074  55.4344077  54.3715640  51.3384624  52.1094177  54.8095084
  51.2833428  51.9438448  53.8683528  50.7130679  52.8170210  54.9657274
  36.1277139  47.3462241  68.6356507  36.7736002  46.8361195  69.1243732
  35.9194290  48.0830923  69.2099932  44.6480749  41.6102286  54.3880403
  44.6359419  42.5544126  54.5448674  45.5404171  41.4272431  54.0939864
  48.4632869  38.2045062  58.6426340  47.6965264  37.6503549  58.7883022
  48.8743574  38.2766931  59.5040491  54.8220992  64.8447390  52.8072387
  55.0746513  64.3228911  52.0455850  53.8845551  64.6813535  52.9099070
  56.5254309  61.2375543  53.7104799  56.6928711  62.1055779  54.0775270
  56.3351478  61.4002824  52.7866089  53.1452587  62.0599611  53.9573698
  52.3089899  62.3974297  54.2782972  53.0057357  61.9248590  53.0200835
  56.2316872  67.1855694  50.5806174  55.3243934  66.9544947  50.7797323
  56.7287904  66.3893313  50.7680155  53.0190967  61.9046838  51.1571604
  52.1420433  61.7835639  50.7933851  53.4948720  61.1132916  50.9050493
  47.7469661  63.4988693  56.5984510  48.0423102  62.5899372  56.5451564
  46.8457697  63.4776433  56.2765512  49.4757503  61.1802791  56.7223835
  49.1470209  60.3000170  56.5398941  49.8296873  61.1250460  57.6100224
  54.5767473  59.9650382  55.2892606  55.2975835  60.3431635  54.7856323
  53.9532777  60.6839259  55.3927584  50.7209435  62.8445841  54.7153260
  50.0278680  62.9190196  54.0593296  50.4761187  62.0806184  55.2374777
  57.5803359  64.9161249  51.0233829  58.5262464  64.7867457  51.0922247
  57.2017604  64.1775911  51.5003257  55.7646276  62.8411225  50.9588715
  54.8577731  62.5444338  51.0351428  56.0422257  62.5441043  50.0923001
  54.5345061  59.6998160  51.1000694  55.3964225  60.0253059  51.3596511
  54.7195405  58.9129656  50.5873760  55.4874504  56.9394203  54.3880403
  55.4753174  57.8836043  54.5448674  56.3797926  56.7564349  54.0939864
  27.7941744  -2.8581916  50.2639228  28.4320154  -2.9775169  49.5602569
  27.6762587  -1.9101072  50.3227181  24.6031451  -2.9054488  50.2000753
  24.2649962  -3.0213423  49.3121288  25.4721219  -3.3063323  50.1801759
  20.4618266  -1.0519011  46.1897644  19.8983132  -1.1429074  45.4213932
  20.3470661  -1.8719107  46.6700137  18.0082698   0.4432180  49.0281865
  18.8003990   0.1023005  48.6128164  18.2479349   0.5527155  49.9484018
  26.0417825   2.6151956  41.5012109  25.3905805   3.2006037  41.1146123
  26.8362188   3.1458151  41.5607146  19.9673452  -0.2958907  41.8999243
  20.7404328  -0.8429919  41.7612119  20.3198851   0.5685343  42.1113705
  27.5193090   0.3042388  42.0381093  26.8838923   0.3777015  42.7501998
  27.1890497   0.8935987  41.3600173  22.0236019  -2.2338134  41.7342068
  21.9072277  -2.9093231  42.4023153  22.1338279  -2.7205761  40.9174221
  24.3667560  -2.7727987  45.4388757  24.0025767  -3.2997366  46.1501679
  25.2234676  -3.1629518  45.2655243  26.7648380   0.7178891  52.1015936
  26.4649103   1.6203930  51.9931744  26.4199439   0.4511074  52.9537089
  23.9862268  -5.2880430  41.4196773  23.8661893  -4.8423379  42.2582253
  23.2914856  -4.9395112  40.8610311  21.7469160   7.4823212  45.0686904
  21.6693189   8.4331037  45.1475385  21.1430803   7.1369084  45.7261830
  28.2916916   0.1666861  49.6390688  27.6625779   0.3312576  48.9366756
  27.9042578   0.5808471  50.4101652  32.1706148   1.1021299  46.9935052
  31.4857186   1.4820201  46.4432085  32.2549997   1.7116626  47.7267000
  29.4257080  -1.2518742  53.5930396  29.6373975  -0.6086982  52.9164777
  29.3786828  -2.0856425  53.1252326  23.8444878  -0.0958730  46.9040773
  24.3083223   0.1828973  46.1145396  23.5801676  -0.9975286  46.7213864
  20.7368959  -0.5487249  49.8420537  21.3070316  -0.1199981  49.2038021
  21.3277071  -0.8304664  50.5404722  22.7813764  -3.9735578  43.7130339
  23.4837807  -3.5214534  44.1804265  22.4494393  -4.6151759  44.3410232
  30.5402908   1.6253214  51.7652753  31.3620351   1.2233401  51.4835435
  30.5365310   1.5221448  52.7168869  24.0207529   2.8405365  43.7892444
  23.8853203   3.6856900  44.2177292  24.5617341   3.0424642  43.0258378
  17.4736926   0.3580803  44.3620369  17.9861447   1.1524053  44.5125934
  18.1259639  -0.3392907  44.2953970  19.2831811   3.4746559  46.4443122
  19.4598439   4.3964524  46.2564106  20.0788644   3.1604978  46.8737502
  20.4063126   4.9924733  52.4453464  20.9570551   4.8641796  51.6730458
  19.5674602   5.2919622  52.0948357  27.7457243   3.7431731  55.9474187
  27.7275718   4.5640612  55.4554456  28.6677163   3.6185806  56.1724328
  27.3350275  -3.6455462  40.8263772  26.8196898  -2.8750858  41.0652160
  27.0627583  -4.3190326  41.4496834  32.3084549  -0.8923108  42.7616946
  31.5313992  -1.2311948  42.3172108  32.9876030  -0.8870485  42.0871911
  25.5683010   0.3861853  44.3016507  25.0404372  -0.3485387  43.9889745
  25.0670513   1.1636529  44.0556476  30.5475856  -1.4189127  49.4183554
  29.8899530  -0.7289865  49.5063682  31.3516255  -1.0292695  49.7617540
  29.3581315  -3.0644754  47.4687496  29.8713197  -2.4314762  47.9709205
  30.0082539  -3.6643558  47.1030856  23.7135610  -1.7957937  37.3051480
  22.8062672  -2.0268683  37.5042629  24.2106642  -2.5920318  37.4925462
  26.6203689   6.9139570  40.2248167  25.9465388   7.2171267  40.8333124
  27.0069511   7.7168651  39.8753624  26.6197193  -4.1903883  44.8448516
  27.3669012  -3.6782485  44.5355638  26.8888783  -4.5119830  45.7052910
  24.8923844  -1.6945342  41.8275471  23.9835063  -1.9786309  41.9247940
  24.9218927  -1.2746263  40.9678777  30.1243111   1.9161248  45.5966638
  29.6705438   1.0752157  45.6531829  29.4937078   2.5522646  45.9341418
  28.5676050   3.7537744  46.5316456  28.8599025   4.3142801  45.8128822
  29.0774671   4.0466305  47.2869615  23.4408738  -4.0816721  47.9285266
  23.4957347  -5.0342885  47.8527743  22.6299940  -3.9257282  48.4126564
  24.5899931  -0.1536598  39.1663549  24.1519361  -0.8700739  38.7069187
  25.3310372   0.0739517  38.6048641  23.5309675   4.5318095  47.6209910
  23.4885854   4.7578942  46.6918442  24.4472374   4.2981470  47.7695711
  32.7073046  -1.8779401  45.2239868  32.5690945  -1.6877805  44.2961057
  32.3509265  -1.1160018  45.6807919  32.7342426   0.1897126  50.2351139
  33.1678932   0.0972415  51.0834193  33.4474006   0.1654626  49.5971155
  21.6475476   1.4081124  47.4171872  22.4416075   0.9131445  47.2154447
  20.9367169   0.8798988  47.0539578  26.4670321   3.7899220  51.7684240
  26.5207343   4.3590156  52.5361956  25.5985102   3.9601105  51.4038277
  33.5957975   0.2320826  52.7684025  33.7893865   1.1366637  53.0143300
  33.4958593  -0.2271754  53.6022610  24.2246752   1.9810146  51.0969709
  24.0857838   1.6128931  51.9695647  23.4361348   2.4957786  50.9253667
  24.8194904   7.0819243  42.4395246  24.9946660   6.6107286  43.2540869
  24.1327692   7.7085009  42.6676507  25.7751967   1.3591749  48.4858547
  25.4401800   1.3192519  49.3816197  25.2755913   0.6936465  48.0128957
  28.7111159  -1.2952217  38.7595607  28.0940330  -2.0205388  38.6628659
  28.2427647  -0.5342856  38.4162681  30.3665291   3.4146692  56.4201387
  30.3077837   2.7305912  55.7531970  30.7684809   4.1565682  55.9682013
  19.3855989  10.2308606  49.2135106  19.6252588  10.8627130  49.8914125
  18.5425186   9.8796646  49.5000465  30.3682698   1.3786276  54.6515367
  29.4809477   1.0412197  54.7741766  30.9381249   0.6469307  54.8884132
  23.8983851   6.0387728  51.6176610  23.8254023   6.8442700  52.1295915
  23.4561244   6.2379694  50.7924631  23.6873631   5.2759498  45.1279432
  22.9041153   5.8181178  45.2217656  24.3866376   5.7933478  45.5273673
  26.3582535   5.9374562  53.7734769  27.0710507   6.5722027  53.7010670
  25.8672563   6.0338428  52.9574770  28.0800062  -0.1574185  45.3452060
  27.1456340  -0.0372723  45.1756765  28.2576730  -1.0601718  45.0812070
  29.5348844   2.0286955  42.8788247  29.8108688   1.9143550  43.7882121
  28.6653343   1.6304440  42.8400420  26.1702908   6.2773306  46.5221060
  26.3525303   5.4594962  46.9848812  26.9935894   6.4940998  46.0845950
  26.5045074   5.2041491  43.7836109  27.0332840   4.6933946  43.1706271
  26.7673293   4.8884021  44.6481642  17.0062166   3.2205361  51.5271442
  17.5915603   2.4749048  51.6599346  16.8087005   3.5309317  52.4108106
  19.8600822   6.2556608  46.5433885  19.1911197   6.7402736  46.0597925
  19.7213691   6.5025828  47.4577263  24.0006090   8.2900351  53.1416543
  24.5524398   8.4531973  53.9065628  24.3412284   8.8804789  52.4696568
  27.1374477   6.2382327  50.1280225  27.0125617   5.4372067  49.6191171
  27.7953569   6.7328520  49.6394195  29.2009386   4.0391347  51.7559775
  28.2539721   3.9196698  51.6838102  29.5492159   3.1513845  51.8386037
  26.2055819   3.8344063  47.9564127  26.0580782   2.9060771  48.1371697
  27.0309313   3.8564154  47.4721203  29.8089941   4.6572622  49.0429000
  30.7336489   4.4515483  48.9053451  29.6405244   4.4089023  49.9518342
  29.5985257   5.1758289  44.3991092  29.7722135   4.6104712  43.6464944
  30.0914148   5.9759184  44.2170582  30.5860430   4.4925054  41.4987990
  31.2811334   5.1131747  41.7175305  30.9283580   3.6420405  41.7740368
  32.4851853   1.9424759  43.0275321  33.0103177   2.2812032  42.3024641
  32.3974205   1.0071775  42.8438455  24.1471902   5.8558833  55.1565197
  24.4559028   5.6107980  56.0287897  24.9447384   6.0605472  54.6684068
  24.1692514   8.0096743  47.3870574  23.7297504   7.5173121  48.0803431
  24.9200631   7.4669710  47.1462649  16.6484853   4.2008284  47.3895202
  17.4742872   3.9012055  47.0093845  16.2978905   3.4315906  47.8384991
  21.6166386   3.5534752  49.4592876  20.9946395   2.8905457  49.1595103
  22.2871253   3.5795884  48.7766523  14.8493458   2.1194610  48.3484136
  14.0125366   1.6916784  48.1668137  14.8217103   2.3127053  49.2854927
  21.1779893   2.1038675  42.9351336  21.3268013   2.7874140  42.2818009
  21.9846336   2.0843765  43.4500792  33.7961831   1.8447071  55.8901269
  33.5046639   2.2077052  56.7264730  33.1833962   1.1314079  55.7114601
  34.9957513  -0.5900049  48.4103839  35.8304404  -0.1510245  48.5741399
  35.1316642  -1.0661396  47.5912085  24.6775298   4.5986806  40.4063083
  24.1049265   5.2176993  39.9533555  25.2508092   5.1486167  40.9403005
  27.8972558   4.8823956  41.5371666  28.8303231   4.8169517  41.7404541
  27.8095771   5.7180223  41.0786198  30.5260575   4.1989826  38.4975613
  30.4474206   3.8649690  39.3911371  31.3470241   4.6911594  38.4967086
  25.0622097  -4.0652382  37.7479136  26.0081201  -4.1946174  37.8167554
  24.6836342  -4.8037720  38.2248564  16.9605563   6.3320898  49.1109016
  16.8260031   5.5721299  48.5447014  16.5437626   7.0561798  48.6437805
  28.0964526   1.5157821  38.1185592  28.8000377   1.7207824  38.7343247
  27.3727175   2.0834583  38.3834675  28.9262337  -2.7332317  44.2387862
  28.8697538  -2.2763766  43.3995494  29.4790679  -3.4941633  44.0610705
  20.1174689   7.2290215  49.3227459  20.0007073   8.1735647  49.2206149
  19.2967136   6.9263776  49.7113258  30.0051224   1.9540351  40.1684052
  30.8396828   1.5221549  39.9861526  29.8435567   1.7822364  41.0960946
  29.6597116  -1.5427536  41.5340391  29.6045920  -1.7083265  40.5928835
  29.0343171  -0.8351503  41.6902581  21.1429203   7.8818477  52.5383387
  22.0456450   7.9142087  52.8549882  20.9166573   6.9518928  52.5529723
  22.8982805   6.6349463  49.1993466  21.9478436   6.6351325  49.0857838
  23.2015292   5.8882198  48.6829501  38.6335499  12.4710002  50.2639228
  39.2713909  12.3516749  49.5602569  38.5156342  13.4190846  50.3227181
  35.4425205  12.4237430  50.2000753  35.1043717  12.3078495  49.3121288
  36.3114973  12.0228595  50.1801759  31.3012021  14.2772906  46.1897644
  30.7376886  14.1862843  45.4213932  31.1864416  13.4572811  46.6700137
  35.9244988  13.5772282  56.1586959  35.9133629  13.1825080  55.2867462
  36.0865628  12.8438354  56.7520730  28.8476453  15.7724098  49.0281865
  29.6397745  15.4314923  48.6128164  29.0873103  15.8819073  49.9484018
  36.8811580  17.9443874  41.5012109  36.2299559  18.5297954  41.1146123
  37.6755942  18.4750069  41.5607146  30.8067207  15.0333011  41.8999243
  31.5798083  14.4861998  41.7612119  31.1592606  15.8977260  42.1113705
  32.6452249  16.3609393  55.1066143  32.3542115  17.2655024  54.9912809
  33.2809234  16.4025921  55.8210212  33.5708456  13.7386242  51.6967502
  34.1672028  13.5142264  50.9824465  33.6283428  12.9970987  52.2992950
  33.1433485  11.1925677  39.5317693  33.3959005  10.6707199  38.7701156
  32.2058044  11.0291823  39.6344377  38.1876767  10.1961456  47.3392436
  38.9739857   9.7780879  46.9882853  38.4515472  11.1007548  47.5074085
  38.3586845  15.6334306  42.0381093  37.7232678  15.7068932  42.7501998
  38.0284251  16.2227905  41.3600173  43.5885195  10.1336689  48.2425415
  44.3210366   9.5635906  48.4763244  42.8324550   9.7458289  48.6831921
  32.8629773  13.0953783  41.7342068  32.7466031  12.4198687  42.4023153
  32.9732033  12.6086157  40.9174221  35.2061314  12.5563930  45.4388757
  34.8419521  12.0294551  46.1501679  36.0628430  12.1662399  45.2655243
  41.1110615   3.8458263  52.7020024  40.7793940   4.7153674  52.4781239
  40.5156228   3.5294547  53.3814054  34.8466801   7.5853830  40.4350106
  35.0141204   8.4534066  40.8020577  34.6563970   7.7481112  39.5111395
  37.6042134  16.0470809  52.1015936  37.3042858  16.9495848  51.9931744
  37.2593194  15.7802992  52.9537089  31.0554616  12.4984606  48.1352641
  30.1305112  12.3660820  48.3430333  31.3039029  13.2778825  48.6322583
  41.0039278   8.5653349  49.7813374  40.0956156   8.4968758  49.4872135
  40.9526874   9.0425294  50.6095199  34.8256022  10.0411488  41.4196773
  34.7055647  10.4868538  42.2582253  34.1308610  10.3896805  40.8610311
  28.4163427  12.1417879  48.9696430  28.5455808  12.3952358  49.8835842
  27.7360878  12.7345587  48.6501085  35.0780144   9.9842995  57.7248271
  34.3013478  10.5436915  57.7151136  35.7170707  10.4699778  58.2463141
  42.8700925   6.7669787  51.5591248  42.2275305   7.0602321  50.9131042
  42.3655853   6.6522708  52.3644444  40.5241088  10.5132961  42.2477107
  41.4358944  10.7460347  42.0724804  40.0150735  11.0970005  41.6852185
  33.3326516  12.7928448  57.2866238  34.0741201  13.3313492  57.0101062
  32.6263502  13.4194737  57.4437790  38.8081856  14.9357589  55.8838399
  39.2165212  14.4939999  55.1393032  38.0859117  14.3610216  56.1372592
  35.1612926   9.8730195  53.2571956  36.0074121  10.2969609  53.4006605
  35.1011564   9.2163820  53.9510519  39.1310671  15.4958779  49.6390688
  38.5019533  15.6604493  48.9366756  38.7436333  15.9100389  50.4101652
  43.0099902  16.4313217  46.9935052  42.3250941  16.8112118  46.4432085
  43.0943752  17.0408544  47.7267000  38.3112371   7.5334564  54.9153130
  38.0673303   8.2876624  54.3787406  38.5872302   7.9119911  55.7500377
  40.2650834  14.0773176  53.5930396  40.4767729  14.7204936  52.9164777
  40.2180582  13.2435493  53.1252326  37.8677063   6.6890997  50.4966968
  37.0061542   6.9872250  50.7883705  37.8939498   6.9061396  49.5648000
  34.6838632  15.2333187  46.9040773  35.1476978  15.5120890  46.1145396
  34.4195431  14.3316632  46.7213864  31.5762714  14.7804669  49.8420537
  32.1464071  15.2091937  49.2038021  32.1670825  14.4987253  50.5404722
  33.6207519  11.3556340  43.7130339  34.3231562  11.8077383  44.1804265
  33.2888147  10.7140158  44.3410232  32.0687880   9.9468096  58.0881548
  31.4386541  10.6284377  58.3216945  31.9623968   9.8351178  57.1434686
  27.3632852   9.6139892  49.0147472  26.5731906   9.8697421  48.5387583
  27.8544100  10.4288230  49.1199513  41.3796662  16.9545131  51.7652753
  42.2014106  16.5525319  51.4835435  41.3759065  16.8513366  52.7168869
  29.3147598   9.9784472  45.9730949  28.5178761  10.0903166  46.4914444
  29.0873190  10.3171124  45.1071839  35.1453265  16.5029175  53.9213463
  35.2097698  16.9649582  54.7571635  34.4364189  15.8726540  54.0495773
  25.6470555   9.8670383  51.4462463  25.8978594  10.7517393  51.7120039
  26.1830104   9.6874984  50.6737555  49.4702655  13.2983880  48.1137724
  48.7166363  12.7291278  47.9581729  49.6050196  13.2646544  49.0608359
  34.8601283  18.1697282  43.7892444  34.7246958  19.0148818  44.2177292
  35.4011096  18.3716560  43.0258378  28.3130681  15.6872720  44.3620369
  28.8255201  16.4815971  44.5125934  28.9653393  14.9899011  44.2953970
  30.1225565  18.8038477  46.4443122  30.2992194  19.7256441  46.2564106
  30.9182399  18.4896896  46.8737502  34.2636584   5.6646741  58.0427056
  35.0046297   6.2653894  57.9631518  34.4954507   4.9224379  57.4845098
  29.4077922  10.8503108  56.3205285  29.2931437   9.9488366  56.6212384
  28.5522440  11.0966805  55.9690102  36.4869760  18.7920849  57.9192786
  36.0433614  18.0057227  57.6013690  37.1486973  18.9799999  57.2536677
  31.2456881  20.3216650  52.4453464  31.7964306  20.1933714  51.6730458
  30.4068357  20.6211539  52.0948357  38.5850998  19.0723649  55.9474187
  38.5669473  19.8932530  55.4554456  39.5070918  18.9477724  56.1724328
  35.0424052  16.5867778  56.7897695  35.5752389  15.8256066  56.5597003
  34.5138133  16.2941430  57.5321850  38.2093747   1.6927844  52.3191337
  37.8658016   2.5829486  52.2430448  38.5772709   1.5029502  51.4560922
  26.2779597  14.0161375  45.1379939  27.1154819  14.4258383  44.9213647
  26.4557865  13.0760817  45.1080133  38.1744029  11.6836455  40.8263772
  37.6590653  12.4541060  41.0652160  37.9021338  11.0101591  41.4496834
  35.7591140   6.5286156  45.8849011  34.9032737   6.1393006  45.7054649
  36.1718092   6.6078117  45.0248796  37.2890287   4.0632499  50.2840570
  36.7855083   4.0262634  49.4708376  37.5820894   4.9725242  50.3437227
  33.5333173   4.1471229  49.2906752  34.3986170   3.9514038  48.9312642
  33.6010682   3.9181581  50.2176109  43.1478304  14.4368810  42.7616946
  42.3707746  14.0979969  42.3172108  43.8269785  14.4421433  42.0871911
  37.9630333   9.5563547  42.6523553  37.6580468   9.8709696  43.5033697
  38.9160775   9.6344967  42.6950886  36.4076764  15.7153771  44.3016507
  35.8798126  14.9806530  43.9889745  35.9064267  16.4928447  44.0556476
  41.3869610  13.9102791  49.4183554  40.7293285  14.6002053  49.5063682
  42.1910010  14.2999223  49.7617540  31.1395492   6.3773437  46.6623119
  31.7139244   6.1548618  45.9296312  31.7266474   6.4462131  47.4151720
  40.1975069  12.2647164  47.4687496  40.7106951  12.8977156  47.9709205
  40.8476293  11.6648359  47.1030856  31.4665079   8.4077898  40.6819004
  30.6302391   8.7452584  41.0028279  31.3269849   8.2726878  39.7446141
  33.4418160   3.2514686  45.3898188  32.7882572   2.9363703  44.7654803
  33.3998634   2.6290426  46.1158011  34.5529365  13.5333981  37.3051480
  33.6456426  13.3023234  37.5042629  35.0500397  12.7371600  37.4925462
  36.6755900   9.7396619  49.7145836  35.7578461   9.9611566  49.5567524
  37.0916044   9.8142930  48.8557543  37.4590948  11.1388035  44.8448516
  38.2062767  11.6509432  44.5355638  37.7282537  10.8172088  45.7052910
  35.7317598  13.6346576  41.8275471  34.8228817  13.3505609  41.9247940
  35.7612682  14.0545654  40.9678777  40.9636865  17.2453165  45.5966638
  40.5099193  16.4044075  45.6531829  40.3330832  17.8814564  45.9341418
  39.9069785   8.1745151  46.8267306  39.1692542   7.6622537  47.1577548
  40.1596559   7.7345533  46.0150582  39.4069805  19.0829662  46.5316456
  39.6992779  19.6434719  45.8128822  39.9168425  19.3758223  47.2869615
  40.0081412   0.9521403  47.4209075  40.3140289   0.0918767  47.1334990
  40.7334017   1.5439023  47.2208069  26.3005768  11.3552090  45.8090673
  26.1030168  10.7621451  45.0841739  25.7452432  11.0504300  46.5266612
  34.2802492  11.2475196  47.9285266  34.3351102  10.2949033  47.8527743
  33.4693694  11.4034635  48.4126564  35.4293686  15.1755319  39.1663549
  34.9913116  14.4591178  38.7069187  36.1704127  15.4031434  38.6048641
  32.2194852   9.8652256  45.6875645  31.4062718  10.1646427  46.0940837
  32.7153846   9.4707945  46.4050127  34.3703430  19.8610013  47.6209910
  34.3279609  20.0870859  46.6918442  35.2866129  19.6273388  47.7695711
  37.8169064  10.3294081  54.5190539  38.1718451  10.5565554  55.3785004
  38.4641195  10.6612457  53.8967794  43.5466801  13.4512516  45.2239868
  43.4084699  13.6414112  44.2961057  43.1903019  14.2131899  45.6807919
  31.7108927   7.4370612  51.3036880  32.3508306   7.2959371  50.6059843
  30.8786457   7.1505125  50.9275482  43.5736180  15.5189043  50.2351139
  44.0072687  15.4264333  51.0834193  44.2867761  15.4946544  49.5971155
  32.4869231  16.7373042  47.4171872  33.2809829  16.2423362  47.2154447
  31.7760923  16.2090905  47.0539578  37.3064075  19.1191138  51.7684240
  37.3601097  19.6882074  52.5361956  36.4378857  19.2893023  51.4038277
  28.7951994  10.8816124  43.4931625  27.8649582  10.8200579  43.7101587
  28.8909466  10.3592077  42.6968266  28.7137543   7.4070937  46.0809867
  28.9744360   8.3216270  45.9719027  29.5354716   6.9395379  46.2306479
  30.1862469   8.8208694  53.2508691  30.8585522   8.6126056  52.6021340
  29.3592255   8.6230780  52.8113923  44.4351730  15.5612744  52.7684025
  44.6287620  16.4658555  53.0143300  44.3352348  15.1020163  53.6022610
  36.0888041   5.4470635  55.2674352  35.4415956   6.1460584  55.1738828
  36.8589056   5.8806779  55.6350600  39.4966838  15.7119487  58.3424905
  39.3452345  15.4830039  57.4254989  39.4871518  16.6690088  58.3556250
  36.2652175  13.2851400  53.3271172  37.1944235  13.4362559  53.1540139
  35.8443205  13.3735420  52.4719818  35.0640507  17.3102064  51.0969709
  34.9251592  16.9420848  51.9695647  34.2755103  17.8249703  50.9253667
  36.6145722  16.6883667  48.4858547  36.2795554  16.6484437  49.3816197
  36.1149668  16.0228383  48.0128957  30.5889966  12.0951297  54.0111128
  30.4509764  11.3631536  54.6122667  31.4994889  12.0060197  53.7295316
  39.5504913  14.0339701  38.7595607  38.9334084  13.3086529  38.6628659
  39.0821402  14.7949061  38.4162681  33.2172266  11.8071256  53.4994808
  33.9271885  11.1664448  53.4581426  33.1741575  12.0584151  54.4220989
  41.2059045  18.7438609  56.4201387  41.1471591  18.0597830  55.7531970
  41.6078564  19.4857599  55.9682013  31.9301200   8.7936474  55.3190447
  31.3938557   8.3427212  55.9712044  31.3417909   8.9282383  54.5760912
  30.2249744  25.5600523  49.2135106  30.4646342  26.1919047  49.8914125
  29.3818940  25.2088563  49.5000465  31.3403459   8.2525125  37.8816911
  30.4632926   8.1313926  37.5179158  31.8161212   7.4611204  37.6295800
  41.2076452  16.7078193  54.6515367  40.3203231  16.3704115  54.7741766
  41.7775003  15.9761225  54.8884132  22.8605600  13.0402285  47.9758418
  23.5476639  12.7264015  47.3879433  22.7053728  13.9443650  47.7025670
  27.6640322   7.9292482  52.4043442  27.5798510   7.3218151  51.6693852
  26.8423028   8.4201500  52.4052938  37.8364036   6.4146045  47.7713637
  38.3332735   5.6616008  47.4514707  37.0651017   6.4510362  47.2056846
  45.6893793  12.1186411  49.4131928  45.6783669  13.0011126  49.0425862
  44.8211172  11.7657962  49.2186465  38.9193816  15.1717732  45.3452060
  37.9850095  15.2919195  45.1756765  39.0970485  14.2690199  45.0812070
  34.4199004   8.5563428  47.4985322  34.0496792   8.0034469  48.1866227
  34.9158097   7.9521562  46.9460322  42.3066368  11.0135052  45.8802094
  42.7726820  11.8463043  45.8062397  42.7573868  10.5480033  46.5847353
  32.2488203  19.0160923  54.5940339  32.9497662  19.6497406  54.7469734
  31.7783318  19.3575655  53.8335979  40.3742599  17.3578873  42.8788247
  40.6502443  17.2435468  43.7882121  39.5047097  16.9596358  42.8400420
  40.2783030   3.3815639  49.9192996  39.3646110   3.6119866  50.0875203
  40.7076132   3.4654083  50.7707028  40.0489489  11.5705531  52.4192890
  39.3960939  11.8181438  51.7645343  40.4269869  10.7569669  52.0855367
  37.0096663  21.6065224  46.5221060  37.1919057  20.7886880  46.9848812
  37.8329649  21.8232916  46.0845950  36.0977062  12.3125342  58.9058927
  35.4217699  12.2119471  59.5761302  36.9204696  12.1564555  59.3694924
  27.8455921  18.5497278  51.5271442  28.4309358  17.8040966  51.6599346
  27.6480759  18.8601235  52.4108106  22.4373576  11.1202878  50.2475885
  22.4757675  10.5866469  51.0413003  21.9313868  10.5938084  49.6286862
  29.8164338   5.9667419  53.7438428  29.8805664   6.8282250  53.3315825
  29.7531458   5.3541421  53.0110786  29.2916610   8.0390552  57.3911462
  29.9188649   7.6567629  58.0048986  28.4344529   7.8204753  57.7567154
  39.6910719  18.4453527  58.9965197  40.2350623  19.0583485  58.5020152
  39.1097564  19.0033105  59.5132210  26.0682153   9.8466981  43.3229817
  26.3635594   8.9377659  43.2696870  25.1670189   9.8254720  43.0010819
  29.5976400   7.9222977  49.3057365  28.8762986   8.5358945  49.1664839
  30.3869656   8.4580742  49.2274011  40.0403140  19.3683265  51.7559775
  39.0933476  19.2488616  51.6838102  40.3885913  18.4805763  51.8386037
  32.4002714   5.2577404  55.5798017  32.9237116   5.5039700  56.3424326
  32.1815047   6.0897438  55.1601154  27.7969995   7.5281078  43.4469142
  27.4682701   6.6478457  43.2644248  28.1509366   7.4728747  44.3345531
  37.0449574  19.1635981  47.9564127  36.8974536  18.2352688  48.1371697
  37.8703067  19.1856072  47.4721203  30.9111818   7.8154048  43.8144620
  31.2507890   8.3439969  43.0923228  31.3583938   8.1534454  44.5903186
  40.6483696  19.9864540  49.0429000  41.5730243  19.7807401  48.9053451
  40.4798999  19.7380941  49.9518342  33.6055259   6.1991099  53.2647688
  33.2652079   5.3998912  53.6668367  32.8994265   6.4992810  52.6924521
  34.2571731   3.2840411  51.7175011  35.0797800   2.8100889  51.5953901
  34.5009794   4.0630895  52.2173697  32.8979965   6.3128670  42.0137912
  33.6188328   6.6909922  41.5101629  32.2745269   7.0317546  42.1172890
  37.0411088   7.0173819  42.9496245  37.2574702   7.8998457  42.6485073
  36.5605155   6.6260032  42.2201887  31.7810309   9.9759532  49.5266989
  31.6354890  10.2899835  50.4191271  31.3035513  10.5944432  48.9737888
  33.6406692   6.9662080  49.5747879  33.6268261   6.0703173  49.2380177
  34.3579120   6.9732744  50.2086165  35.4932823   7.3999420  51.6201006
  35.2350601   8.3216491  51.6185337  34.9617863   7.0029855  52.3101470
  26.2555972  12.5164876  52.4654650  25.7109440  13.2924684  52.5974925
  27.1335321  12.8635681  52.3073772  33.0443588   5.8476460  44.8435449
  33.1659499   4.9193106  45.0426336  32.7545631   5.8615146  43.9313764
  35.9134779   3.5331371  47.9802169  35.9356475   3.5970704  47.0254148
  36.3302838   2.6935879  48.1742675  46.2918403  13.2686630  46.0181391
  46.7349549  12.5193955  45.6200515  45.4144913  13.2596766  45.6355123
  27.0421993  11.6434773  55.3584807  26.3003729  11.7917408  55.9449438
  26.7214738  11.9043038  54.4951557  43.3245607  17.2716677  43.0275321
  43.8496931  17.6103950  42.3024641  43.2367960  16.3363692  42.8438455
  27.4878607  19.5300201  47.3895202  28.3136627  19.2303973  47.0093845
  27.1372659  18.7607824  47.8384991  32.4560140  18.8826669  49.4592876
  31.8340150  18.2197374  49.1595103  33.1265007  18.9087801  48.7766523
  25.6887212  17.4486528  48.3484136  24.8519120  17.0208702  48.1668137
  25.6610858  17.6418971  49.2854927  32.5284668   7.3608457  59.0525382
  32.5772823   8.2370580  58.6703151  33.0707182   6.8185851  58.4797025
  43.0139513  17.9049581  58.3326519  42.2235057  17.8873720  57.7931018
  42.7772868  18.4437874  59.0875555  43.1337388  14.7542047  55.6459247
  43.1835393  14.5892055  56.5874770  43.0251312  13.8869306  55.2557128
  32.0173647  17.4330593  42.9351336  32.1661768  18.1166057  42.2818009
  32.8240091  17.4135683  43.4500792  40.4241151  10.7372975  56.9618554
  41.3251014  10.5979440  56.6702552  40.4989125  10.9027430  57.9016731
  34.7583956   8.1139830  55.8071740  33.8887266   8.4073396  55.5354329
  34.9943437   8.6980275  56.5279004  44.6355585  17.1738989  55.8901269
  44.3440394  17.5368969  56.7264730  44.0227717  16.4605997  55.7114601
  45.8351268  14.7391868  48.4103839  46.6698159  15.1781672  48.5741399
  45.9710396  14.2630522  47.5912085  42.8842774  12.2971603  54.3581327
  43.3596895  12.4899250  53.5500178  41.9608339  12.3530789  54.1124710
  29.7726280  13.4595770  43.9412405  29.5272322  12.5558100  44.1392615
  29.9422195  13.4612921  42.9991883  37.4622990   4.3319447  53.3237161
  37.9804934   5.0680474  52.9983649  37.1078123   4.6383440  54.1583920
  29.0421928   9.1924128  41.4398566  28.3491173   9.2668483  40.7838602
  28.7973680   8.4284472  41.9620083  37.7135584   0.7519729  48.8438057
  37.9937338   0.0842918  49.4698484  38.4986191   0.9448825  48.3312721
  35.5169053  19.9278723  40.4063083  34.9443020  20.5468910  39.9533555
  36.0901846  20.4778085  40.9403005  41.5844443   9.1737363  52.5909632
  42.5361865   9.2735461  52.6121856  41.4147893   8.3815632  53.1007717
  39.6058822   6.2592947  52.7769033  39.0108754   6.5397959  52.0815522
  39.3208519   6.7486847  53.5485774  44.0632520  12.3943483  51.7051932
  44.0308840  11.4559484  51.8911616  44.6733144  12.4727520  50.9717757
  35.9015851  11.2639536  37.7479136  36.8474956  11.1345744  37.8167554
  35.5230096  10.5254198  38.2248564  44.2127009   9.1854526  51.7510215
  43.6966057   8.4012983  51.5640144  45.0966957   8.8573243  51.9156735
  41.8737736   2.9295542  47.7106028  41.6762557   2.6210630  48.5949360
  42.4837441   3.6557181  47.8403958  49.8809070  13.4559490  50.8457969
  50.6112459  13.1944778  51.4065672  49.2716016  12.7188212  50.8860037
  47.9624367  11.5967352  51.4432420  47.2357531  11.4623317  50.8348912
  47.5471654  11.9044181  52.2489138  35.7854544  15.3157282  59.2079793
  36.7057553  15.4935881  59.4019839  35.7504127  14.3713327  59.0559492
  34.0858768   9.1889512  37.6834021  33.1790224   8.8922625  37.7596735
  34.3634749   8.8919330  36.8168307  25.0036709  10.5095876  48.1333068
  24.6839493   9.6561184  47.8407442  24.4570137  10.7244454  48.8891035
  28.7816616  13.2258317  51.8502574  29.0002626  14.1575425  51.8690608
  29.1942390  12.8666291  52.6357378  35.7020834   3.7326402  43.8378262
  34.8921562   3.3873487  44.2133509  36.3905251   3.4233946  44.4265874
  37.6311382   2.8104449  45.4602559  38.1842421   3.2299902  46.1192582
  37.8681469   1.8840197  45.5025515  33.6544482   8.7991523  61.2405323
  33.5541208   9.7485880  61.1717414  33.4366024   8.4709761  60.3681393
  32.8557553   6.0476448  37.8246000  33.7176717   6.3731346  38.0841818
  33.0407897   5.2607944  37.3119066  24.8724969  14.1298787  50.1026189
  24.1788440  13.7152740  49.5896144  25.6197960  14.1719324  49.5059608
  41.0090189   4.9204974  44.9681223  40.4288858   5.5789778  44.5859276
  40.7426122   4.0982319  44.5568641  39.4593756   4.3210032  47.1702544
  39.9593534   4.4326566  46.3616863  40.1029364   4.0171085  47.8103352
  33.5175752  12.2288661  60.0570385  33.0342833  13.0289022  60.2634274
  33.6036691  12.2396606  59.1037829  26.7861711  14.0617041  47.9792204
  26.7632399  14.1604728  47.0274087  27.0962348  14.9082192  48.3009370
  29.4449089  16.1193196  52.0938818  30.3992343  16.0877138  52.0268750
  29.2461613  15.6583820  52.9089044  30.0348471  14.6894312  54.6609616
  30.8541360  15.1838391  54.6844453  30.3085279  13.7726280  54.6327184
  39.7915067   7.0805064  44.0237572  38.9040922   7.3654715  43.8057766
  40.2069057   6.9198828  43.1764849  43.1429604   7.1051585  47.7391911
  43.9189994   7.5948038  48.0116528  42.4177738   7.5309640  48.1963780
  45.5802162   7.8179205  48.7965852  46.1746653   7.5774941  48.0859160
  45.6528746   7.0986335  49.4239388  27.7999318  21.6612816  49.1109016
  27.6653786  20.9013216  48.5447014  27.3831380  22.3853715  48.6437805
  38.9358281  16.8449739  38.1185592  39.6394131  17.0499742  38.7343247
  38.2120930  17.4126501  38.3834675  39.7656091  12.5959600  44.2387862
  39.7091293  13.0528152  43.3995494  40.3184434  11.8350285  44.0610705
  43.5760897   8.3849332  45.0637981  43.3197831   7.9845968  45.8946189
  42.9513765   9.0993126  44.9388120  47.8873235  11.1245406  47.5709273
  47.3272793  11.1938595  48.3440835  47.2816738  10.9486390  46.8508769
  30.9568444  22.5582133  49.3227459  30.8400828  23.5027565  49.2206149
  30.1360890  22.2555694  49.7113258  40.8444978  17.2832268  40.1684052
  41.6790582  16.8513467  39.9861526  40.6829321  17.1114282  41.0960946
  40.4990871  13.7864382  41.5340391  40.4439674  13.6208653  40.5928835
  39.8736926  14.4940415  41.6902581  25.2883385   9.0232446  55.3601813
  25.9342249   8.5131400  55.8489038  25.0800537   9.7601128  55.9345238
  37.8136778  16.0913293  60.8593954  38.6827937  16.2653946  60.4980589
  37.3343529  16.9107710  60.7369683  33.8086996   3.2872491  41.1125709
  33.7965666   4.2314331  41.2693980  34.7010418   3.1042636  40.8185171
  31.9822958  23.2110395  52.5383387  32.8850205  23.2434005  52.8549882
  31.7560328  22.2810845  52.5529723  33.7376560  21.9641381  49.1993466
  32.7872191  21.9643243  49.0857838  34.0409046  21.2174116  48.6829501
  37.6239115  -0.1184733  45.3671646  36.8571511  -0.6726246  45.5128329
  38.0349820  -0.0462864  46.2285798  54.4278949  25.4628606  48.2425415
  55.1604121  24.8927823  48.4763244  53.6718305  25.0750207  48.6831921
  51.9504369  19.1750181  52.7020024  51.6187694  20.0445592  52.4781239
  51.3549983  18.8586465  53.3814054  51.8433033  23.8945267  49.7813374
  50.9349910  23.8260675  49.4872135  51.7920628  24.3717212  50.6095199
  53.7094679  22.0961705  51.5591248  53.0669059  22.3894238  50.9131042
  53.2049608  21.9814626  52.3644444  49.6475610  30.2649506  55.8838399
  50.0558966  29.8231917  55.1393032  48.9252872  29.6902134  56.1372592
  49.1506126  22.8626481  54.9153130  48.9067058  23.6168542  54.3787406
  49.4266056  23.2411829  55.7500377  51.1044589  29.4065094  53.5930396
  51.3161484  30.0496854  52.9164777  51.0574337  28.5727410  53.1252326
  48.7070818  22.0182914  50.4966968  47.8455297  22.3164168  50.7883705
  48.7333252  22.2353313  49.5648000  52.2190417  32.2837049  51.7652753
  53.0407860  31.8817236  51.4835435  52.2152819  32.1805283  52.7168869
  60.3096410  28.6275798  48.1137724  59.5560118  28.0583196  47.9581729
  60.4443951  28.5938462  49.0608359  42.1862377  19.5780780  60.4506799
  41.7929323  19.0246978  61.1254443  43.0028518  19.8891358  60.8413316
  45.1030338  20.9938659  58.0427056  45.8440052  21.5945812  57.9631518
  45.3348261  20.2516297  57.4845098  47.3263514  34.1212766  57.9192786
  46.8827368  33.3349145  57.6013690  47.9880728  34.3091917  57.2536677
  49.4244752  34.4015566  55.9474187  49.4063227  35.2224447  55.4554456
  50.3464672  34.2769642  56.1724328  45.8817806  31.9159696  56.7897695
  46.4146143  31.1547984  56.5597003  45.3531887  31.6233348  57.5321850
  49.0487501  17.0219762  52.3191337  48.7051771  17.9121403  52.2430448
  49.4166464  16.8321419  51.4560922  48.1284042  19.3924417  50.2840570
  47.6248837  19.3554552  49.4708376  48.4214648  20.3017160  50.3437227
  44.3726927  19.4763147  49.2906752  45.2379924  19.2805955  48.9312642
  44.4404436  19.2473498  50.2176109  51.0368824  27.5939081  47.4687496
  51.5500705  28.2269073  47.9709205  51.6870048  26.9940277  47.1030856
  44.2811914  18.5806603  45.3898188  43.6276327  18.2655621  44.7654803
  44.2392388  17.9582344  46.1158011  50.8475167  16.2813321  47.4209075
  51.1534044  15.4210684  47.1334990  51.5727772  16.8730941  47.2208069
  54.4129935  30.8480961  50.2351139  54.8466441  30.7556250  51.0834193
  55.1261515  30.8238462  49.5971155  55.2745484  30.8904662  52.7684025
  55.4681374  31.7950472  53.0143300  55.1746102  30.4312081  53.6022610
  46.9281795  20.7762552  55.2674352  46.2809710  21.4752502  55.1738828
  47.6982810  21.2098696  55.6350600  50.3360593  31.0411405  58.3424905
  50.1846099  30.8121956  57.4254989  50.3265272  31.9982006  58.3556250
  52.0452800  34.0730527  56.4201387  51.9865346  33.3889747  55.7531970
  52.4472318  34.8149517  55.9682013  52.0470207  32.0370111  54.6515367
  51.1596986  31.6996033  54.7741766  52.6168758  31.3053142  54.8884132
  56.5287547  27.4478328  49.4131928  56.5177424  28.3303044  49.0425862
  55.6604927  27.0949879  49.2186465  53.1460122  26.3426969  45.8802094
  53.6120574  27.1754961  45.8062397  53.5967623  25.8771951  46.5847353
  51.1176785  18.7107556  49.9192996  50.2039865  18.9411783  50.0875203
  51.5469886  18.7946000  50.7707028  50.8883243  26.8997448  52.4192890
  50.2354694  27.1473356  51.7645343  51.2663623  26.0861587  52.0855367
  50.5304474  33.7745444  58.9965197  51.0744378  34.3875403  58.5020152
  49.9491318  34.3325023  59.5132210  45.0965485  18.6132329  51.7175011
  45.9191554  18.1392807  51.5953901  45.3403549  19.3922813  52.2173697
  44.4800447  22.2953998  49.5747879  44.4662016  21.3995091  49.2380177
  45.1972875  22.3024661  50.2086165  46.7528533  18.8623288  47.9802169
  46.7750230  18.9262621  47.0254148  47.1696592  18.0227797  48.1742675
  57.1312157  28.5978548  46.0181391  57.5743303  27.8485873  45.6200515
  56.2538668  28.5888684  45.6355123  45.8259411  36.5142668  55.1565197
  46.1346537  36.2691815  56.0287897  46.6234893  36.7189307  54.6684068
  53.8533268  33.2341498  58.3326519  53.0628812  33.2165637  57.7931018
  53.6166622  33.7729792  59.0875555  53.9731143  30.0833965  55.6459247
  54.0229148  29.9183972  56.5874770  53.8645066  29.2161224  55.2557128
  51.2634905  26.0664893  56.9618554  52.1644768  25.9271358  56.6702552
  51.3382880  26.2319348  57.9016731  55.4749340  32.5030906  55.8901269
  55.1834148  32.8660887  56.7264730  54.8621471  31.7897915  55.7114601
  56.6745022  30.0683786  48.4103839  57.5091913  30.5073590  48.5741399
  56.8104151  29.5922439  47.5912085  53.7236528  27.6263521  54.3581327
  54.1990650  27.8191167  53.5500178  52.8002093  27.6822707  54.1124710
  48.3016744  19.6611365  53.3237161  48.8198688  20.3972391  52.9983649
  47.9471877  19.9675358  54.1583920  48.5529339  16.0811647  48.8438057
  48.8331092  15.4134836  49.4698484  49.3379946  16.2740743  48.3312721
  52.4238197  24.5029281  52.5909632  53.3755620  24.6027379  52.6121856
  52.2541647  23.7107550  53.1007717  50.4452576  21.5884864  52.7769033
  49.8502509  21.8689877  52.0815522  50.1602273  22.0778765  53.5485774
  54.9026275  27.7235401  51.7051932  54.8702595  26.7851401  51.8911616
  55.5126898  27.8019437  50.9717757  55.0520763  24.5146444  51.7510215
  54.5359812  23.7304901  51.5640144  55.9360712  24.1865161  51.9156735
  52.7131490  18.2587460  47.7106028  52.5156311  17.9502548  48.5949360
  53.3231196  18.9849099  47.8403958  60.7202825  28.7851408  50.8457969
  61.4506213  28.5236696  51.4065672  60.1109770  28.0480129  50.8860037
  58.8018122  26.9259270  51.4432420  58.0751285  26.7915235  50.8348912
  58.3865409  27.2336099  52.2489138  46.6248298  30.6449200  59.2079793
  47.5451308  30.8227799  59.4019839  46.5897881  29.7005245  59.0559492
  48.4705137  18.1396367  45.4602559  49.0236175  18.5591820  46.1192582
  48.7075223  17.2132115  45.5025515  44.4938236  24.1283440  61.2405323
  44.3934963  25.0777797  61.1717414  44.2759778  23.8001679  60.3681393
  51.8483944  20.2496892  44.9681223  51.2682613  20.9081696  44.5859276
  51.5819877  19.4274236  44.5568641  50.2987510  19.6501949  47.1702544
  50.7987289  19.7618484  46.3616863  50.9423118  19.3463002  47.8103352
  44.3569506  27.5580579  60.0570385  43.8736588  28.3580939  60.2634274
  44.4430445  27.5688524  59.1037829  50.6308822  22.4096982  44.0237572
  49.7434677  22.6946633  43.8057766  51.0462811  22.2490746  43.1764849
  53.9823358  22.4343503  47.7391911  54.7583748  22.9239956  48.0116528
  53.2571492  22.8601557  48.1963780  56.4195917  23.1471122  48.7965852
  57.0140408  22.9066858  48.0859160  56.4922500  22.4278253  49.4239388
  54.4154652  23.7141250  45.0637981  54.1591586  23.3137886  45.8946189
  53.7907520  24.4285044  44.9388120  58.7266989  26.4537323  47.5709273
  58.1666547  26.5230512  48.3440835  58.1210493  26.2778308  46.8508769
  48.6530532  31.4205211  60.8593954  49.5221692  31.5945863  60.4980589
  48.1737284  32.2399628  60.7369683  44.6480750  18.6164408  41.1125709
  44.6359420  19.5606248  41.2693980  45.5404172  18.4334554  40.8185171
  48.4632870  15.2107185  45.3671646  47.6965266  14.6565672  45.5128329
  48.8743575  15.2829054  46.2285798  40.4674631  21.4991981  59.4576827
  41.3306093  21.1428786  59.6680152  39.8940042  21.1605876  60.1452232
  60.3123008  43.1293837  50.2639228  60.9501418  43.0100584  49.5602569
  60.1943851  44.0774681  50.3227181  57.1212714  43.0821265  50.2000753
  56.7831226  42.9662330  49.3121288  57.9902482  42.6812430  50.1801759
  52.9799530  44.9356742  46.1897644  52.4164395  44.8446679  45.4213932
  52.8651925  44.1156646  46.6700137  57.6032497  44.2356117  56.1586959
  57.5921138  43.8408915  55.2867462  57.7653137  43.5022190  56.7520730
  50.5263962  46.4307933  49.0281865  51.3185254  46.0898758  48.6128164
  50.7660612  46.5402908  49.9484018  58.5599089  48.6027709  41.5012109
  57.9087068  49.1881790  41.1146123  59.3543451  49.1333904  41.5607146
  52.4854716  45.6916846  41.8999243  53.2585592  45.1445834  41.7612119
  52.8380115  46.5561096  42.1113705  54.3239758  47.0193229  55.1066143
  54.0329624  47.9238860  54.9912809  54.9596743  47.0609756  55.8210212
  55.2495965  44.3970077  51.6967502  55.8459537  44.1726100  50.9824465
  55.3070937  43.6554823  52.2992950  59.8664276  40.8545291  47.3392436
  60.6527366  40.4364714  46.9882853  60.1302981  41.7591383  47.5074085
  60.0374354  46.2918141  42.0381093  59.4020187  46.3652768  42.7501998
  59.7071760  46.8811740  41.3600173  65.2672704  40.7920524  48.2425415
  65.9997875  40.2219741  48.4763244  64.5112059  40.4042125  48.6831921
  54.5417282  43.7537619  41.7342068  54.4253540  43.0782522  42.4023153
  54.6519542  43.2669992  40.9174221  56.8848823  43.2147766  45.4388757
  56.5207030  42.6878387  46.1501679  57.7415939  42.8246235  45.2655243
  62.7898124  34.5042098  52.7020024  62.4581449  35.3737509  52.4781239
  62.1943737  34.1878382  53.3814054  56.5254310  38.2437665  40.4350106
  56.6928713  39.1117902  40.8020577  56.3351479  38.4064947  39.5111395
  59.2829643  46.7054644  52.1015936  58.9830366  47.6079683  51.9931744
  58.9380703  46.4386827  52.9537089  52.7342125  43.1568441  48.1352641
  51.8092621  43.0244655  48.3430333  52.9826538  43.9362660  48.6322583
  62.6826787  39.2237184  49.7813374  61.7743665  39.1552593  49.4872135
  62.6314383  39.7009129  50.6095199  56.5043531  40.6995323  41.4196773
  56.3843156  41.1452374  42.2582253  55.8096119  41.0480641  40.8610311
  50.0950936  42.8001715  48.9696430  50.2243317  43.0536194  49.8835842
  49.4148387  43.3929423  48.6501085  54.2650423  53.4698965  45.0686904
  54.1874453  54.4206790  45.1475385  53.6612067  53.1244837  45.7261830
  56.7567653  40.6426830  57.7248271  55.9800987  41.2020750  57.7151136
  57.3958216  41.1283613  58.2463141  64.5488434  37.4253623  51.5591248
  63.9062814  37.7186156  50.9131042  64.0443362  37.3106543  52.3644444
  62.2028597  41.1716796  42.2477107  63.1146453  41.4044183  42.0724804
  61.6938244  41.7553840  41.6852185  55.0114025  43.4512283  57.2866238
  55.7528710  43.9897327  57.0101062  54.3051011  44.0778572  57.4437790
  60.4869365  45.5941424  55.8838399  60.8952721  45.1523834  55.1393032
  59.7646626  45.0194051  56.1372592  56.8400435  40.5314031  53.2571956
  57.6861630  40.9553444  53.4006605  56.7799073  39.8747655  53.9510519
  60.8098180  46.1542614  49.6390688  60.1807042  46.3188329  48.9366756
  60.4223842  46.5684224  50.4101652  64.6887411  47.0897052  46.9935052
  64.0038450  47.4695954  46.4432085  64.7731261  47.6992379  47.7267000
  59.9899880  38.1918399  54.9153130  59.7460812  38.9460460  54.3787406
  60.2659811  38.5703747  55.7500377  61.9438343  44.7357011  53.5930396
  62.1555238  45.3788771  52.9164777  61.8968091  43.9019328  53.1252326
  59.5464572  37.3474832  50.4966968  58.6849051  37.6456086  50.7883705
  59.5727007  37.5645231  49.5648000  56.3626141  45.8917023  46.9040773
  56.8264487  46.1704726  46.1145396  56.0982940  44.9900467  46.7213864
  53.2550222  45.4388504  49.8420537  53.8251580  45.8675772  49.2038021
  53.8458334  45.1571089  50.5404722  55.2995027  42.0140175  43.7130339
  56.0019071  42.4661219  44.1804265  54.9675656  41.3723994  44.3410232
  53.7475389  40.6051932  58.0881548  53.1174050  41.2868212  58.3216945
  53.6411477  40.4935013  57.1434686  63.0584171  47.6128967  51.7652753
  63.8801615  47.2109154  51.4835435  63.0546574  47.5097201  52.7168869
  56.8240774  47.1613010  53.9213463  56.8885207  47.6233417  54.7571635
  56.1151698  46.5310375  54.0495773  56.5388792  48.8281118  43.7892444
  56.4034467  49.6732653  44.2177292  57.0798605  49.0300395  43.0258378
  53.0256132  34.9072697  60.4506799  52.6323077  34.3538896  61.1254443
  53.8422272  35.2183276  60.8413316  51.8013074  49.4622312  46.4443122
  51.9779703  50.3840277  46.2564106  52.5969908  49.1480731  46.8737502
  55.9424093  36.3230577  58.0427056  56.6833806  36.9237730  57.9631518
  56.1742016  35.5808214  57.4845098  51.0865431  41.5086944  56.3205285
  50.9718946  40.6072201  56.6212384  50.2309948  41.7550641  55.9690102
  58.1657268  49.4504684  57.9192786  57.7221123  48.6641063  57.6013690
  58.8274482  49.6383835  57.2536677  52.9244390  50.9800486  52.4453464
  53.4751815  50.8517549  51.6730458  52.0855866  51.2795375  52.0948357
  60.2638507  49.7307484  55.9474187  60.2456982  50.5516365  55.4554456
  61.1858427  49.6061559  56.1724328  56.7211561  47.2451613  56.7897695
  57.2539898  46.4839902  56.5597003  56.1925642  46.9525265  57.5321850
  59.8881256  32.3511679  52.3191337  59.5445525  33.2413321  52.2430448
  60.2560218  32.1613337  51.4560922  59.8531538  42.3420291  40.8263772
  59.3378162  43.1124895  41.0652160  59.5808847  41.6685427  41.4496834
  57.4378649  37.1869991  45.8849011  56.5820246  36.7976842  45.7054649
  57.8505601  37.2661952  45.0248796  58.9677796  34.7216335  50.2840570
  58.4642592  34.6846470  49.4708376  59.2608403  35.6309077  50.3437227
  55.2120682  34.8055064  49.2906752  56.0773679  34.6097873  48.9312642
  55.2798191  34.5765416  50.2176109  64.8265813  45.0952645  42.7616946
  64.0495255  44.7563805  42.3172108  65.5057294  45.1005268  42.0871911
  59.6417842  40.2147383  42.6523553  59.3367977  40.5293532  43.5033697
  60.5948284  40.2928803  42.6950886  58.0864273  46.3737606  44.3016507
  57.5585635  45.6390366  43.9889745  57.5851776  47.1512282  44.0556476
  63.0657119  44.5686626  49.4183554  62.4080794  45.2585888  49.5063682
  63.8697519  44.9583058  49.7617540  61.8762578  42.9230999  47.4687496
  62.3894460  43.5560991  47.9709205  62.5263802  42.3232195  47.1030856
  55.1205669  33.9098521  45.3898188  54.4670081  33.5947538  44.7654803
  55.0786143  33.2874262  46.1158011  59.1384952  52.9015323  40.2248167
  58.4646651  53.2047020  40.8333124  59.5250774  53.7044404  39.8753624
  58.3543409  40.3980455  49.7145836  57.4365970  40.6195402  49.5567524
  58.7703553  40.4726765  48.8557543  59.1378457  41.7971870  44.8448516
  59.8850276  42.3093268  44.5355638  59.4070046  41.4755923  45.7052910
  57.4105107  44.2930411  41.8275471  56.5016326  44.0089444  41.9247940
  57.4400191  44.7129490  40.9678777  62.6424374  47.9037001  45.5966638
  62.1886702  47.0627910  45.6531829  62.0118341  48.5398399  45.9341418
  61.5857294  38.8328987  46.8267306  60.8480051  38.3206373  47.1577548
  61.8384068  38.3929368  46.0150582  61.0857314  49.7413497  46.5316456
  61.3780288  50.3018554  45.8128822  61.5955934  50.0342058  47.2869615
  61.6868921  31.6105239  47.4209075  61.9927798  30.7502602  47.1334990
  62.4121526  32.2022859  47.2208069  55.9590001  41.9059032  47.9285266
  56.0138611  40.9532868  47.8527743  55.1481203  42.0618471  48.4126564
  57.1081195  45.8339155  39.1663549  56.6700625  45.1175014  38.7069187
  57.8491636  46.0615270  38.6048641  53.8982361  40.5236091  45.6875645
  53.0850227  40.8230262  46.0940837  54.3941355  40.1291780  46.4050127
  56.0490939  50.5193848  47.6209910  56.0067118  50.7454695  46.6918442
  56.9653638  50.2857223  47.7695711  59.4956573  40.9877916  54.5190539
  59.8505960  41.2149389  55.3785004  60.1428704  41.3196293  53.8967794
  65.2254310  44.1096352  45.2239868  65.0872208  44.2997948  44.2961057
  64.8690528  44.8715735  45.6807919  65.2523689  46.1772879  50.2351139
  65.6860196  46.0848168  51.0834193  65.9655270  46.1530379  49.5971155
  54.1656740  47.3956877  47.4171872  54.9597338  46.9007198  47.2154447
  53.4548432  46.8674741  47.0539578  58.9851584  49.7774973  51.7684240
  59.0388606  50.3465909  52.5361956  58.1166365  49.9476858  51.4038277
  51.8649978  39.4792529  53.2508691  52.5373031  39.2709891  52.6021340
  51.0379764  39.2814615  52.8113923  66.1139239  46.2196579  52.7684025
  66.3075129  47.1242390  53.0143300  66.0139857  45.7603999  53.6022610
  57.7675550  36.1054470  55.2674352  57.1203465  36.8044420  55.1738828
  58.5376565  36.5390614  55.6350600  61.1754347  46.3703322  58.3424905
  61.0239854  46.1413874  57.4254989  61.1659027  47.3273924  58.3556250
  57.9439684  43.9435235  53.3271172  58.8731744  44.0946395  53.1540139
  57.5230714  44.0319256  52.4719818  56.7428016  47.9685899  51.0969709
  56.6039101  47.6004684  51.9695647  55.9542612  48.4833539  50.9253667
  57.3376168  53.0694996  42.4395246  57.5127923  52.5983039  43.2540869
  56.6508956  53.6960762  42.6676507  58.2933231  47.3467502  48.4858547
  57.9583063  47.3068272  49.3816197  57.7937176  46.6812218  48.0128957
  52.2677475  42.7535132  54.0111128  52.1297273  42.0215371  54.6122667
  53.1782398  42.6644032  53.7295316  61.2292422  44.6923536  38.7595607
  60.6121593  43.9670365  38.6628659  60.7608911  45.4532897  38.4162681
  54.8959775  42.4655091  53.4994808  55.6059394  41.8248284  53.4581426
  54.8529084  42.7167986  54.4220989  62.8846554  49.4022445  56.4201387
  62.8259100  48.7181665  55.7531970  63.2866072  50.1441435  55.9682013
  53.6088709  39.4520309  55.3190447  53.0726066  39.0011048  55.9712044
  53.0205418  39.5866218  54.5760912  51.9037253  56.2184359  49.2135106
  52.1433851  56.8502883  49.8914125  51.0606449  55.8672399  49.5000465
  62.8863961  47.3662029  54.6515367  61.9990740  47.0287950  54.7741766
  63.4562512  46.6345060  54.8884132  56.4165115  52.0263481  51.6176610
  56.3435286  52.8318453  52.1295915  55.9742508  52.2255447  50.7924631
  56.2054894  51.2635251  45.1279432  55.4222416  51.8056931  45.2217656
  56.9047640  51.7809231  45.5273673  59.5151545  37.0729881  47.7713637
  60.0120244  36.3199843  47.4514707  58.7438526  37.1094197  47.2056846
  67.3681302  42.7770246  49.4131928  67.3571178  43.6594962  49.0425862
  66.4998681  42.4241797  49.2186465  58.8763798  51.9250315  53.7734769
  59.5891771  52.5597780  53.7010670  58.3853827  52.0214181  52.9574770
  60.5981325  45.8301568  45.3452060  59.6637604  45.9503030  45.1756765
  60.7757994  44.9274035  45.0812070  56.0986513  39.2147264  47.4985322
  55.7284301  38.6618304  48.1866227  56.5945606  38.6105397  46.9460322
  63.9853877  41.6718887  45.8802094  64.4514329  42.5046879  45.8062397
  64.4361377  41.2063869  46.5847353  53.9275712  49.6744759  54.5940339
  54.6285171  50.3081242  54.7469734  53.4570827  50.0159490  53.8335979
  62.0530108  48.0162708  42.8788247  62.3289952  47.9019303  43.7882121
  61.1834606  47.6180193  42.8400420  61.9570539  34.0399474  49.9192996
  61.0433619  34.2703701  50.0875203  62.3863641  34.1237918  50.7707028
  61.7276998  42.2289366  52.4192890  61.0748448  42.4765273  51.7645343
  62.1057378  41.4153504  52.0855367  58.6884172  52.2649059  46.5221060
  58.8706566  51.4470715  46.9848812  59.5117158  52.4816751  46.0845950
  59.0226337  51.1917244  43.7836109  59.5514104  50.6809699  43.1706271
  59.2854557  50.8759775  44.6481642  57.7764571  42.9709177  58.9058927
  57.1005208  42.8703306  59.5761302  58.5992205  42.8148391  59.3694924
  49.5243430  49.2081114  51.5271442  50.1096867  48.4624802  51.6599346
  49.3268268  49.5185070  52.4108106  52.3782085  52.2432361  46.5433885
  51.7092460  52.7278489  46.0597925  52.2394955  52.4901581  47.4577263
  56.5187354  54.2776105  53.1416543  57.0705662  54.4407726  53.9065628
  56.8593547  54.8680542  52.4696568  51.4951847  36.6251254  53.7438428
  51.5593173  37.4866085  53.3315825  51.4318967  36.0125256  53.0110786
  50.9704119  38.6974387  57.3911462  51.5976158  38.3151464  58.0048986
  50.1132038  38.4788589  57.7567154  61.3698228  49.1037362  58.9965197
  61.9138132  49.7167320  58.5020152  60.7885073  49.6616940  59.5132210
  59.6555741  52.2258080  50.1280225  59.5306880  51.4247820  49.6191171
  60.3134832  52.7204273  49.6394195  61.7190649  50.0267100  51.7559775
  60.7720985  49.9072451  51.6838102  62.0673422  49.1389598  51.8386037
  54.0790223  35.9161239  55.5798017  54.6024625  36.1623536  56.3424326
  53.8602556  36.7481274  55.1601154  58.7237083  49.8219816  47.9564127
  58.5762045  48.8936524  48.1371697  59.5490576  49.8439907  47.4721203
  62.3271204  50.6448375  49.0429000  63.2517752  50.4391236  48.9053451
  62.1586508  50.3964776  49.9518342  55.2842768  36.8574934  53.2647688
  54.9439588  36.0582747  53.6668367  54.5781774  37.1576645  52.6924521
  55.9359240  33.9424247  51.7175011  56.7585309  33.4684725  51.5953901
  56.1797303  34.7214730  52.2173697  54.5767474  36.9712505  42.0137912
  55.2975837  37.3493758  41.5101629  53.9532778  37.6901382  42.1172890
  58.7198597  37.6757654  42.9496245  58.9362211  38.5582292  42.6485073
  58.2392664  37.2843867  42.2201887  53.4597818  40.6343367  49.5266989
  53.3142399  40.9483670  50.4191271  52.9823022  41.2528268  48.9737888
  57.1720332  38.0583255  51.6201006  56.9138110  38.9800326  51.6185337
  56.6405372  37.6613690  52.3101470  62.1166521  51.1634043  44.3991092
  62.2903398  50.5980465  43.6464944  62.6095412  51.9634937  44.2170582
  54.7231097  36.5060295  44.8435449  54.8447008  35.5776942  45.0426336
  54.4333140  36.5198981  43.9313764  57.5922288  34.1915206  47.9802169
  57.6143984  34.2554539  47.0254148  58.0090347  33.3519715  48.1742675
  67.9705912  43.9270465  46.0181391  68.4137058  43.1777791  45.6200515
  67.0932422  43.9180602  45.6355123  63.1041693  50.4800807  41.4987990
  63.7992598  51.1007500  41.7175305  63.4464843  49.6296158  41.7740368
  48.7209502  42.3018608  55.3584807  47.9791238  42.4501243  55.9449438
  48.4002247  42.5626873  54.4951557  65.0033116  47.9300512  43.0275321
  65.5284440  48.2687785  42.3024641  64.9155469  46.9947528  42.8438455
  56.6653165  51.8434586  55.1565197  56.9740291  51.5983733  56.0287897
  57.4628647  52.0481225  54.6684068  56.6873777  53.9972496  47.3870574
  56.2478767  53.5048874  48.0803431  57.4381894  53.4545463  47.1462649
  54.1347649  49.5410505  49.4592876  53.5127659  48.8781210  49.1595103
  54.8052516  49.5671637  48.7766523  54.2072177  38.0192293  59.0525382
  54.2560332  38.8954416  58.6703151  54.7494691  37.4769686  58.4797025
  64.6927022  48.5633416  58.3326519  63.9022566  48.5457555  57.7931018
  64.4560377  49.1021710  59.0875555  64.8124897  45.4125882  55.6459247
  64.8622902  45.2475890  56.5874770  64.7038821  44.5453141  55.2557128
  53.6961156  48.0914428  42.9351336  53.8449276  48.7749893  42.2818009
  54.5027600  48.0719518  43.4500792  62.1028660  41.3956810  56.9618554
  63.0038523  41.2563275  56.6702552  62.1776634  41.5611265  57.9016731
  56.4371465  38.7723665  55.8071740  55.5674775  39.0657231  55.5354329
  56.6730946  39.3564110  56.5279004  66.3143094  47.8322824  55.8901269
  66.0227903  48.1952805  56.7264730  65.7015226  47.1189832  55.7114601
  67.5138777  45.3975704  48.4103839  68.3485668  45.8365508  48.5741399
  67.6497905  44.9214357  47.5912085  64.5630283  42.9555439  54.3581327
  65.0384404  43.1483085  53.5500178  63.6395848  43.0114624  54.1124710
  51.4513789  44.1179606  43.9412405  51.2059831  43.2141936  44.1392615
  51.6209704  44.1196756  42.9991883  59.1410499  34.9903282  53.3237161
  59.6592443  35.7264309  52.9983649  58.7865632  35.2967275  54.1583920
  59.3923093  31.4103565  48.8438057  59.6724847  30.7426754  49.4698484
  60.1773700  31.6032660  48.3312721  57.1956562  50.5862559  40.4063083
  56.6230529  51.2052746  39.9533555  57.7689355  51.1361920  40.9403005
  63.2631952  39.8321199  52.5909632  64.2149374  39.9319296  52.6121856
  63.0935402  39.0399467  53.1007717  61.2846331  36.9176782  52.7769033
  60.6896263  37.1981795  52.0815522  60.9996028  37.4070683  53.5485774
  60.4153821  50.8699709  41.5371666  61.3484495  50.8045270  41.7404541
  60.3277034  51.7055976  41.0786198  63.0441838  50.1865579  38.4975613
  62.9655470  49.8525443  39.3911371  63.8651505  50.6787347  38.4967086
  65.7420029  43.0527318  51.7051932  65.7096349  42.1143319  51.8911616
  66.3520653  43.1311355  50.9717757  57.5803360  41.9223371  37.7479136
  58.5262465  41.7929579  37.8167554  57.2017605  41.1838033  38.2248564
  65.8914518  39.8438362  51.7510215  65.3753566  39.0596818  51.5640144
  66.7754466  39.5157078  51.9156735  63.5525245  33.5879377  47.7106028
  63.3550066  33.2794466  48.5949360  64.1624950  34.3141016  47.8403958
  69.6411876  42.2551188  51.4432420  68.9145040  42.1207153  50.8348912
  69.2259163  42.5628016  52.2489138  57.4642053  45.9741117  59.2079793
  58.3845062  46.1519716  59.4019839  57.4291636  45.0297163  59.0559492
  57.3808343  34.3910237  43.8378262  56.5709071  34.0457322  44.2133509
  58.0692760  34.0817781  44.4265874  59.3098891  33.4688284  45.4602559
  59.8629930  33.8883738  46.1192582  59.5468978  32.5424032  45.5025515
  55.3331991  39.4575358  61.2405323  55.2328717  40.4069715  61.1717414
  55.1153533  39.1293597  60.3681393  46.5512478  44.7882623  50.1026189
  45.8575949  44.3736575  49.5896144  47.2985469  44.8303159  49.5059608
  62.6877698  35.5788809  44.9681223  62.1076367  36.2373613  44.5859276
  62.4213631  34.7566154  44.5568641  61.1381265  34.9793867  47.1702544
  61.6381043  35.0910402  46.3616863  61.7816873  34.6754920  47.8103352
  55.1963261  42.8872497  60.0570385  54.7130342  43.6872857  60.2634274
  55.2824200  42.8980442  59.1037829  51.1236598  46.7777031  52.0938818
  52.0779852  46.7460974  52.0268750  50.9249122  46.3167655  52.9089044
  51.7135980  45.3478148  54.6609616  52.5328869  45.8422226  54.6844453
  51.9872788  44.4310116  54.6327184  61.4702576  37.7388900  44.0237572
  60.5828431  38.0238550  43.8057766  61.8856566  37.5782663  43.1764849
  64.8217113  37.7635421  47.7391911  65.5977503  38.2531873  48.0116528
  64.0965247  38.1893475  48.1963780  67.2589671  38.4763040  48.7965852
  67.8534162  38.2358776  48.0859160  67.3316255  37.7570171  49.4239388
  49.4786827  52.3196651  49.1109016  49.3441295  51.5597052  48.5447014
  49.0618889  53.0437551  48.6437805  60.6145790  47.5033574  38.1185592
  61.3181640  47.7083577  38.7343247  59.8908439  48.0710336  38.3834675
  61.4443600  43.2543436  44.2387862  61.3878802  43.7111987  43.3995494
  61.9971943  42.4934120  44.0610705  65.2548406  39.0433168  45.0637981
  64.9985340  38.6429803  45.8946189  64.6301274  39.7576962  44.9388120
  69.5660744  41.7829241  47.5709273  69.0060302  41.8522430  48.3440835
  68.9604247  41.6070225  46.8508769  52.6355953  53.2165968  49.3227459
  52.5188337  54.1611400  49.2206149  51.8148399  52.9139530  49.7113258
  62.5232487  47.9416104  40.1684052  63.3578091  47.5097302  39.9861526
  62.3616830  47.7698117  41.0960946  62.1778379  44.4448217  41.5340391
  62.1227183  44.2792488  40.5928835  61.5524435  45.1524250  41.6902581
  46.9670894  39.6816281  55.3601813  47.6129758  39.1715235  55.8489038
  46.7588046  40.4184963  55.9345238  59.4924287  46.7497129  60.8593954
  60.3615446  46.9237781  60.4980589  59.0131038  47.5691546  60.7369683
  55.4874505  33.9456326  41.1125709  55.4753175  34.8898166  41.2693980
  56.3797927  33.7626471  40.8185171  53.6610467  53.8694230  52.5383387
  54.5637714  53.9017840  52.8549882  53.4347837  52.9394681  52.5529723
  55.4164069  52.6225216  49.1993466  54.4659700  52.6227078  49.0857838
  55.7196555  51.8757951  48.6829501  59.3026624  30.5399103  45.3671646
  58.5359020  29.9857589  45.5128329  59.7137329  30.6120971  46.2285798
  51.3068385  36.8283898  59.4576827  52.1699847  36.4720703  59.6680152
  50.7333796  36.4897793  60.1452232  67.9606469  58.4113183  50.2000753
  67.6224980  58.2954248  49.3121288  68.8296237  58.0104348  50.1801759
  63.8193284  60.2648659  46.1897644  63.2558150  60.1738596  45.4213932
  63.7045679  59.4448564  46.6700137  61.3657716  61.7599851  49.0281865
  62.1579008  61.4190676  48.6128164  61.6054366  61.8694826  49.9484018
  63.3248470  61.0208764  41.8999243  64.0979346  60.4737751  41.7612119
  63.6773869  61.8853013  42.1113705  66.0889720  59.7261995  51.6967502
  66.6853292  59.5018017  50.9824465  66.1464691  58.9846740  52.2992950
  65.6614748  57.1801430  39.5317693  65.9140269  56.6582952  38.7701156
  64.7239307  57.0167576  39.6344377  65.3811037  59.0829536  41.7342068
  65.2647295  58.4074440  42.4023153  65.4913297  58.5961910  40.9174221
  67.7242578  58.5439683  45.4388757  67.3600785  58.0170304  46.1501679
  68.5809694  58.1538152  45.2655243  67.3648065  53.5729583  40.4350106
  67.5322467  54.4409819  40.8020577  67.1745234  53.7356865  39.5111395
  63.5735879  58.4860359  48.1352641  62.6486376  58.3536573  48.3430333
  63.8220293  59.2654578  48.6322583  67.3437286  56.0287241  41.4196773
  67.2236911  56.4744291  42.2582253  66.6489874  56.3772558  40.8610311
  60.9344690  58.1293632  48.9696430  61.0637072  58.3828111  49.8835842
  60.2542142  58.7221340  48.6501085  70.3858327  52.6766750  50.4966968
  69.5242806  52.9748003  50.7883705  70.4120761  52.8937149  49.5648000
  67.2019896  61.2208940  46.9040773  67.6658241  61.4996643  46.1145396
  66.9376694  60.3192385  46.7213864  64.0943977  60.7680422  49.8420537
  64.6645334  61.1967690  49.2038021  64.6852089  60.4863006  50.5404722
  66.1388782  57.3432093  43.7130339  66.8412825  57.7953136  44.1804265
  65.8069410  56.7015911  44.3410232  59.8814116  55.6015645  49.0147472
  59.0913170  55.8573174  48.5387583  60.3725363  56.4163983  49.1199513
  61.8328861  55.9660225  45.9730949  61.0360025  56.0778919  46.4914444
  61.6054454  56.3046877  45.1071839  58.1651819  55.8546136  51.4462463
  58.4159857  56.7393146  51.7120039  58.7011367  55.6750737  50.6737555
  60.8311944  61.6748473  44.3620369  61.3436465  62.4691724  44.5125934
  61.4834657  60.9774764  44.2953970  62.6406829  64.7914230  46.4443122
  62.8173457  65.7132194  46.2564106  63.4363662  64.4772649  46.8737502
  58.7960861  60.0037128  45.1379939  59.6336083  60.4134136  44.9213647
  58.9739128  59.0636570  45.1080133  70.6925293  57.6712208  40.8263772
  70.1771916  58.4416813  41.0652160  70.4202601  56.9977344  41.4496834
  68.2772404  52.5161909  45.8849011  67.4214000  52.1268759  45.7054649
  68.6899356  52.5953870  45.0248796  69.8071551  50.0508252  50.2840570
  69.3036346  50.0138387  49.4708376  70.1002157  50.9600995  50.3437227
  66.0514436  50.1346982  49.2906752  66.9167433  49.9389791  48.9312642
  66.1191945  49.9057334  50.2176109  63.6576756  52.3649190  46.6623119
  64.2320507  52.1424371  45.9296312  64.2447738  52.4337884  47.4151720
  63.9846343  54.3953651  40.6819004  63.1483655  54.7328337  41.0028279
  63.8451112  54.2602631  39.7446141  65.9599423  49.2390439  45.3898188
  65.3063836  48.9239456  44.7654803  65.9179897  48.6166179  46.1158011
  67.0710628  59.5209734  37.3051480  66.1637690  59.2898987  37.5042629
  67.5681660  58.7247353  37.4925462  69.1937164  55.7272372  49.7145836
  68.2759725  55.9487319  49.5567524  69.6097307  55.8018683  48.8557543
  69.9772211  57.1263788  44.8448516  70.7244030  57.6385185  44.5355638
  70.2463801  56.8047841  45.7052910  68.2498862  59.6222329  41.8275471
  67.3410081  59.3381362  41.9247940  68.2793945  60.0421407  40.9678777
  58.8187032  57.3427843  45.8090673  58.6211432  56.7497204  45.0841739
  58.2633696  57.0380053  46.5266612  66.7983756  57.2350949  47.9285266
  66.8532365  56.2824786  47.8527743  65.9874958  57.3910388  48.4126564
  67.9474949  61.1631072  39.1663549  67.5094379  60.4466931  38.7069187
  68.6885390  61.3907187  38.6048641  64.7376115  55.8528009  45.6875645
  63.9243981  56.1522180  46.0940837  65.2335110  55.4583698  46.4050127
  64.2290190  53.4246365  51.3036880  64.8689570  53.2835124  50.6059843
  63.3967721  53.1380878  50.9275482  65.0050494  62.7248795  47.4171872
  65.7991093  62.2299115  47.2154447  64.2942187  62.1966658  47.0539578
  61.3133258  56.8691877  43.4931625  60.3830846  56.8076332  43.7101587
  61.4090730  56.3467830  42.6968266  61.2318807  53.3946690  46.0809867
  61.4925624  54.3092023  45.9719027  62.0535979  52.9271132  46.2306479
  62.7043732  54.8084447  53.2508691  63.3766785  54.6001809  52.6021340
  61.8773519  54.6106533  52.8113923  63.1071229  58.0827050  54.0111128
  62.9691027  57.3507289  54.6122667  64.0176153  57.9935950  53.7295316
  64.4482464  54.7812227  55.3190447  63.9119821  54.3302965  55.9712044
  63.8599172  54.9158136  54.5760912  63.8584723  54.2400878  37.8816911
  62.9814189  54.1189679  37.5179158  64.3342476  53.4486957  37.6295800
  55.3786863  59.0278038  47.9758418  56.0657903  58.7139768  47.3879433
  55.2234992  59.9319403  47.7025670  60.1821585  53.9168235  52.4043442
  60.0979774  53.3093904  51.6693852  59.3604292  54.4077253  52.4052938
  70.3545299  52.4021798  47.7713637  70.8513999  51.6491761  47.4514707
  69.5832281  52.4386115  47.2056846  66.9380268  54.5439181  47.4985322
  66.5678055  53.9910222  48.1866227  67.4339360  53.9397315  46.9460322
  54.9554839  57.1078631  50.2475885  54.9938939  56.5742222  51.0413003
  54.4495132  56.5813837  49.6286862  62.3345601  51.9543172  53.7438428
  62.3986928  52.8158003  53.3315825  62.2712722  51.3417174  53.0110786
  58.5863417  55.8342734  43.3229817  58.8816858  54.9253412  43.2696870
  57.6851452  55.8130473  43.0010819  62.1157664  53.9098730  49.3057365
  61.3944249  54.5234698  49.1664839  62.9050919  54.4456495  49.2274011
  64.9183977  51.2453157  55.5798017  65.4418379  51.4915453  56.3424326
  64.6996310  52.0773192  55.1601154  60.3151258  53.5156831  43.4469142
  59.9863964  52.6354210  43.2644248  60.6690629  53.4604500  44.3345531
  63.4293081  53.8029801  43.8144620  63.7689154  54.3315722  43.0923228
  63.8765202  54.1410207  44.5903186  66.1236522  52.1866852  53.2647688
  65.7833343  51.3874665  53.6668367  65.4175529  52.4868563  52.6924521
  66.7752994  49.2716164  51.7175011  67.5979063  48.7976642  51.5953901
  67.0191058  50.0506648  52.2173697  65.4161229  52.3004423  42.0137912
  66.1369591  52.6785675  41.5101629  64.7926533  53.0193300  42.1172890
  69.5592351  53.0049572  42.9496245  69.7755966  53.8874210  42.6485073
  69.0786419  52.6135785  42.2201887  64.2991573  55.9635285  49.5266989
  64.1536154  56.2775588  50.4191271  63.8216776  56.5820185  48.9737888
  66.1587956  52.9537833  49.5747879  66.1449524  52.0578926  49.2380177
  66.8760384  52.9608497  50.2086165  68.0114086  53.3875173  51.6201006
  67.7531864  54.3092244  51.6185337  67.4799127  52.9905608  52.3101470
  58.7737235  58.5040629  52.4654650  58.2290703  59.2800437  52.5974925
  59.6516585  58.8511434  52.3073772  65.5624852  51.8352213  44.8435449
  65.6840763  50.9068859  45.0426336  65.2726894  51.8490899  43.9313764
  68.4316042  49.5207124  47.9802169  68.4537739  49.5846457  47.0254148
  68.8484101  48.6811632  48.1742675  59.5603257  57.6310526  55.3584807
  58.8184993  57.7793161  55.9449438  59.2396001  57.8918791  54.4951557
  60.0059871  65.5175954  47.3895202  60.8317890  65.2179726  47.0093845
  59.6553923  64.7483577  47.8384991  58.2068476  63.4362281  48.3484136
  57.3700384  63.0084455  48.1668137  58.1792121  63.6294724  49.2854927
  64.5354911  63.4206346  42.9351336  64.6843031  64.1041810  42.2818009
  65.3421354  63.4011436  43.4500792  62.2907544  59.4471523  43.9412405
  62.0453586  58.5433853  44.1392615  62.4603458  59.4488674  42.9991883
  69.9804253  50.3195200  53.3237161  70.4986197  51.0556227  52.9983649
  69.6259386  50.6259193  54.1583920  61.5603191  55.1799881  41.4398566
  60.8672436  55.2544236  40.7838602  61.3154943  54.4160225  41.9620083
  68.4197115  57.2515289  37.7479136  69.3656219  57.1221497  37.8167554
  68.0411360  56.5129951  38.2248564  66.6040032  55.1765265  37.6834021
  65.6971487  54.8798378  37.7596735  66.8816013  54.8795084  36.8168307
  57.5217972  56.4971629  48.1333068  57.2020757  55.6436937  47.8407442
  56.9751400  56.7120207  48.8891035  61.2997880  59.2134070  51.8502574
  61.5183890  60.1451178  51.8690608  61.7123654  58.8542044  52.6357378
  68.2202098  49.7202155  43.8378262  67.4102826  49.3749240  44.2133509
  68.9086514  49.4109699  44.4265874  70.1492646  48.7980202  45.4602559
  70.7023684  49.2175655  46.1192582  70.3862732  47.8715950  45.5025515
  65.3738816  52.0352201  37.8246000  66.2357980  52.3607099  38.0841818
  65.5589161  51.2483697  37.3119066  57.3906232  60.1174540  50.1026189
  56.6969704  59.7028493  49.5896144  58.1379223  60.1595077  49.5059608
  59.3042975  60.0492794  47.9792204  59.2813663  60.1480481  47.0274087
  59.6143611  60.8957945  48.3009370  61.9630353  62.1068949  52.0938818
  62.9173606  62.0752891  52.0268750  61.7642876  61.6459573  52.9089044
  57.8064649  55.0108199  55.3601813  58.4523513  54.5007153  55.8489038
  57.5981800  55.7476881  55.9345238  66.3268259  49.2748244  41.1125709
  66.3146929  50.2190084  41.2693980  67.2191681  49.0918389  40.8185171
  70.1420379  45.8691020  45.3671646  69.3752775  45.3149507  45.5128329
  70.5531084  45.9412889  46.2285798  32.5862915  -0.1822748  31.7932211
  32.5086945   0.7685077  31.8720691  31.9824559  -0.5276876  32.4507137
  31.2456882  -2.6721227  39.1698771  31.7964307  -2.8004164  38.3975765
  30.4068358  -2.3726338  38.8193664  37.4597445  -0.7506389  26.9493473
  36.7859144  -0.4474693  27.5578431  37.8463267   0.0522691  26.5998930
  35.6588660  -0.5826717  29.1640552  35.8340416  -1.0538674  29.9786175
  34.9721448   0.0439049  29.3921813  30.2249745   2.5662646  35.9380413
  30.4646343   3.1981170  36.6159431  29.3818942   2.2150686  36.2245772
  34.7377607  -1.6258232  38.3421917  34.6647779  -0.8203260  38.8541221
  34.2955000  -1.4266266  37.5169938  30.6994577  -1.4089352  33.2679191
  30.0304953  -0.9243224  32.7843231  30.5607447  -1.1620131  34.1822570
  34.8399846   0.6254392  39.8661850  35.3918154   0.7886013  40.6310935
  35.1806039   1.2158830  39.1941874  35.0086269   0.3450783  34.1115880
  34.5691260  -0.1472838  34.8048737  35.7594386  -0.1976249  33.8707956
  27.4878608  -3.4637676  34.1140509  28.3136628  -3.7633904  33.7339152
  27.1372660  -4.2330054  34.5630297  27.7999319  -1.3325062  35.8354323
  27.6653787  -2.0924661  35.2692321  27.3831381  -0.6084162  35.3683112
  30.9568445  -0.4355745  36.0472766  30.8400829   0.5089688  35.9451456
  30.1360891  -0.7382183  36.4358565  31.9822959   0.2172517  39.2628694
  32.8850206   0.2496127  39.5795189  31.7560329  -0.7127032  39.2775030
  33.7376561  -1.0296496  35.9238773  32.7872192  -1.0294635  35.8103145
  34.0409047  -1.7763762  35.4074807  49.4729255   4.8064042  36.9884535
  50.1107665   4.6870789  36.2847875  49.3550098   5.7544886  37.0472487
  46.2818961   4.7591470  36.9246060  45.9437472   4.6432535  36.0366595
  47.1508729   4.3582635  36.9047066  42.1405777   6.6126947  32.9142951
  41.5770642   6.5216883  32.1459238  42.0258172   5.7926851  33.3945443
  46.7638744   5.9126322  42.8832265  46.7527385   5.5179120  42.0112769
  46.9259383   5.1792394  43.4766037  39.6870209   8.1078138  35.7527171
  40.4791500   7.7668963  35.3373470  39.9266859   8.2173113  36.6729324
  47.7205335  10.2797914  28.2257416  47.0693315  10.8651995  27.8391429
  48.5149698  10.8104109  28.2852453  41.6460963   7.3687051  28.6244550
  42.4191839   6.8216038  28.4857426  41.9986361   8.2331301  28.8359011
  43.4846005   8.6963434  41.8311449  43.1935871   9.6009065  41.7158116
  44.1202989   8.7379961  42.5455519  44.4102212   6.0740282  38.4212809
  45.0065784   5.8496305  37.7069772  44.4677183   5.3325028  39.0238257
  43.9827240   3.5279718  26.2563000  44.2352761   3.0061239  25.4946463
  43.0451799   3.3645863  26.3589683  49.1980601   7.9688346  28.7626400
  48.5626433   8.0422973  29.4747305  48.8678007   8.5581945  28.0845479
  43.7023529   5.4307823  28.4587375  43.5859787   4.7552727  29.1268459
  43.8125789   4.9440197  27.6419528  46.0455070   4.8917971  32.1634064
  45.6813277   4.3648592  32.8746986  46.9022186   4.5016440  31.9900549
  48.4435890   8.3824849  38.8261243  48.1436613   9.2849888  38.7177050
  48.0986950   8.1157032  39.6782396  41.8948372   4.8338646  34.8597947
  40.9698868   4.7014860  35.0675639  42.1432785   5.6132865  35.3567890
  45.6649778   2.3765528  28.1442079  45.5449403   2.8222579  28.9827560
  44.9702366   2.7250845  27.5855618  39.2557183   4.4771920  35.6941736
  39.3849564   4.7306399  36.6081148  38.5754634   5.0699628  35.3746392
  43.4256670  15.1469170  31.7932211  43.3480700  16.0976995  31.8720691
  42.8218314  14.8015042  32.4507137  45.9173900   2.3197035  44.4493578
  45.1407234   2.8790955  44.4396442  46.5564463   2.8053818  44.9708448
  44.1720272   5.1282488  44.0111545  44.9134956   5.6667532  43.7346368
  43.4657258   5.7548777  44.1683096  49.6475612   7.2711629  42.6083706
  50.0558968   6.8294039  41.8638338  48.9252873   6.6964256  42.8617899
  49.9704426   7.8312819  36.3635995  49.3413289   7.9958534  35.6612063
  49.5830088   8.2454429  37.1346959  53.8493658   8.7667257  33.7180359
  53.1644696   9.1466159  33.1677392  53.9337508   9.3762584  34.4512306
  51.1044590   6.4127216  40.3175702  51.3161485   7.0558976  39.6410083
  51.0574338   5.5789533  39.8497632  45.5232388   7.5687228  33.6286080
  45.9870734   7.8474930  32.8390703  45.2589186   6.6670672  33.4459171
  42.4156469   7.1158709  36.5665843  42.9857826   7.5445977  35.9283328
  43.0064581   6.8341294  37.2650029  44.4601274   3.6910380  30.4375645
  45.1625318   4.1431424  30.9049572  44.1281903   3.0494199  31.0655538
  42.9081636   2.2822136  44.8126855  42.2780296   2.9638417  45.0462251
  42.8017724   2.1705218  43.8679993  38.2026608   1.9493933  35.7392779
  37.4125662   2.2051461  35.2632889  38.6937856   2.7642270  35.8444819
  52.2190418   9.2899172  38.4898060  53.0407862   8.8879359  38.2080741
  52.2152821   9.1867406  39.4414175  40.1541354   2.3138512  32.6976255
  39.3572517   2.4257206  33.2159751  39.9266946   2.6525164  31.8317146
  45.9847021   8.8383215  40.6458770  46.0491454   9.3003622  41.4816942
  45.2757945   8.2080580  40.7741080  36.4864311   2.2024423  38.1707770
  36.7372350   3.0871433  38.4365345  37.0223860   2.0229025  37.3982861
  45.6995039  10.5051322  30.5137750  45.5640714  11.3502858  30.9422598
  46.2404851  10.7070600  29.7503684  39.1524436   8.0226761  31.0865675
  39.6648957   8.8170011  31.2371240  39.8047149   7.3253051  31.0199277
  40.9619321  11.1392517  33.1688429  41.1385949  12.0610482  32.9809413
  41.7576154  10.8250936  33.5982808  40.2471678   3.1857149  43.0450592
  40.1325193   2.2842406  43.3457691  39.3916195   3.4320845  42.6935408
  47.3263515  11.1274889  44.6438092  46.8827369  10.3411268  44.3258997
  47.9880729  11.3154040  43.9781983  42.0850636  12.6570691  39.1698771
  42.6358062  12.5287754  38.3975765  41.2462112  12.9565580  38.8193664
  49.4244753  11.4077689  42.6719494  49.4063229  12.2286570  42.1799763
  50.3464673  11.2831764  42.8969635  45.8817807   8.9221818  43.5143002
  46.4146144   8.1610107  43.2842310  45.3531889   8.6295470  44.2567157
  37.1173353   6.3515415  31.8625246  37.9548575   6.7612423  31.6458954
  37.2951621   5.4114857  31.8325440  49.0137785   4.0190495  27.5509079
  48.4984409   4.7895100  27.7897466  48.7415094   3.3455632  28.1742140
  53.9872059   6.7722850  29.4862252  53.2101502   6.4334010  29.0417415
  54.6663540   6.7775473  28.8117217  47.2470520   8.0507811  31.0261814
  46.7191882   7.3160570  30.7135052  46.7458023   8.8282487  30.7801782
  52.2263366   6.2456831  36.1428860  51.5687041   6.9356093  36.2308989
  53.0303765   6.6353263  36.4862847  51.0368825   4.6001204  34.1932802
  51.5500707   5.2331196  34.6954512  51.6870049   4.0002400  33.8276162
  42.3058835   0.7431938  27.4064311  41.4696147   1.0806625  27.7273586
  42.1663605   0.6080918  26.4691448  45.3923120   5.8688021  24.0296787
  44.4850182   5.6377275  24.2287936  45.8894152   5.0725640  24.2170769
  48.2991199  14.5785528  26.9493473  47.6252898  14.8817225  27.5578431
  48.6857021  15.3814609  26.5998930  48.2984704   3.4742075  31.5693823
  49.0456523   3.9863473  31.2600945  48.5676293   3.1526128  32.4298217
  46.5711354   5.9700616  28.5520777  45.6622573   5.6859649  28.6493247
  46.6006438   6.3899695  27.6924084  51.8030621   9.5807206  32.3211945
  51.3492948   8.7398115  32.3777135  51.1724588  10.2168604  32.6586725
  50.2463560  11.4183702  33.2561763  50.5386535  11.9788759  32.5374129
  50.7562181  11.7112263  34.0114922  37.1399524   3.6906130  32.5335979
  36.9423924   3.0975491  31.8087046  36.5846188   3.3858340  33.2511918
  45.1196248   3.5829237  34.6530573  45.1744858   2.6303073  34.5773049
  44.3087450   3.7388676  35.1371871  46.2687442   7.5109360  25.8908856
  45.8306872   6.7945219  25.4314493  47.0097882   7.7385475  25.3293947
  43.0588608   2.2006296  32.4120951  42.2456473   2.5000467  32.8186144
  43.5547602   1.8061985  33.1295434  45.2097186  12.1964053  34.3455216
  45.1673364  12.4224900  33.4163748  46.1259885  11.9627428  34.4941017
  54.3860556   5.7866557  31.9485174  54.2478455   5.9768153  31.0206364
  54.0296775   6.5485940  32.4053226  54.4129936   7.8543084  36.9596446
  54.8466443   7.7618373  37.8079500  55.1261517   7.8300584  36.3216462
  43.3262986   9.0727082  34.1417179  44.1203585   8.5777402  33.9399754
  42.6154679   8.5444945  33.7784884  48.1457831  11.4545178  38.4929546
  48.1994853  12.0236114  39.2607262  47.2772612  11.6247063  38.1283584
  39.6345750   3.2170164  30.2176932  38.7043338   3.1554620  30.4346894
  39.7303222   2.6946117  29.4213573  41.0256224   1.1562734  39.9753998
  41.6979278   0.9480096  39.3266647  40.1986011   0.9584820  39.5359230
  55.2745486   7.8966784  39.4929331  55.4681376   8.8012595  39.7388606
  55.1746104   7.4374203  40.3267916  50.3360594   8.0473527  45.0670212
  50.1846101   7.8184079  44.1500296  50.3265274   9.0044129  45.0801557
  47.1045931   5.6205440  40.0516478  48.0337991   5.7716599  39.8785446
  46.6836961   5.7089461  39.1965125  45.9034262   9.6456104  37.8215016
  45.7645348   9.2774889  38.6940954  45.1148859  10.1603744  37.6498974
  46.4982414  14.7465201  29.1640552  46.6734170  14.2753244  29.9786175
  45.8115202  15.3730967  29.3921813  47.4539478   9.0237707  35.2103854
  47.1189310   8.9838477  36.1061504  46.9543423   8.3582423  34.7374264
  41.4283722   4.4305337  40.7356435  41.2903519   3.6985576  41.3367974
  42.3388645   4.3414237  40.4540623  50.3898669   6.3693741  25.4840913
  49.7727840   5.6440570  25.3873966  49.9215158   7.1303102  25.1407988
  44.0566022   4.1425296  40.2240115  44.7665641   3.5018489  40.1826733
  44.0135330   4.3938191  41.1466295  52.0452801  11.0792650  43.1446694
  51.9865347  10.3951870  42.4777277  52.4472319  11.8211640  42.6927320
  42.7694956   1.1290514  42.0435754  42.2332313   0.6781253  42.6957350
  42.1811665   1.2636423  41.3006218  41.0643500  17.8954564  35.9380413
  41.3040098  18.5273088  36.6159431  40.2212696  17.5442604  36.2245772
  52.0470208   9.0432234  41.3760673  51.1596987   8.7058155  41.4987072
  52.6168759   8.3115265  41.6129439  33.6999355   5.3756325  34.7003725
  34.3870395   5.0618055  34.1124740  33.5447484   6.2797690  34.4270976
  38.5034077   0.2646522  39.1288749  38.4192266  -0.3427809  38.3939158
  37.6816784   0.7555540  39.1298245  45.5771362  13.7033686  38.3421917
  45.5041533  14.5088657  38.8541221  45.1348755  13.9025652  37.5169938
  45.3661141  12.9405456  31.8524738  44.5828663  13.4827136  31.9462963
  46.0653886  13.4579436  32.2518979  48.0370045  13.6020520  40.4980075
  48.7498017  14.2367985  40.4255977  47.5460074  13.6984386  39.6820077
  49.7587572   7.5071773  32.0697367  48.8243851   7.6273235  31.9002071
  49.9364240   6.6044239  31.8057377  43.0881959  11.3514963  41.3185646
  43.7891418  11.9851446  41.4715040  42.6177074  11.6929695  40.5581285
  51.2136354   9.6932913  29.6033553  51.4896198   9.5789508  30.5127427
  50.3440853   9.2950398  29.5645726  47.8490418  13.9419264  33.2466367
  48.0312813  13.1240920  33.7094119  48.6723404  14.1586956  32.8091257
  48.1832584  12.8687449  30.5081415  48.7120350  12.3579904  29.8951577
  48.4460804  12.5529979  31.3726948  46.9370818   4.6479382  45.6304234
  46.2611455   4.5473511  46.3006609  47.7598451   4.4918596  46.0940231
  38.6849677  10.8851319  38.2516749  39.2703113  10.1395006  38.3844653
  38.4874515  11.1955275  39.1353413  41.5388332  13.9202566  33.2679191
  40.8698707  14.4048694  32.7843231  41.4001202  14.1671786  34.1822570
  33.2767331   3.4556919  36.9721192  33.3151431   2.9220509  37.7658310
  32.7707624   2.9292124  36.3532169  45.6793600  15.9546309  39.8661850
  46.2311908  16.1177931  40.6310935  46.0199794  16.5450747  39.1941874
  50.5304475  10.7807567  45.7210504  51.0744379  11.3937525  45.2265459
  49.9491320  11.3387145  46.2377517  36.9075909   2.1821021  30.0475123
  37.2029350   1.2731699  29.9942177  36.0063945   2.1608760  29.7256126
  48.8161988  13.9028285  36.8525532  48.6913127  13.1018025  36.3436477
  49.4741079  14.3974478  36.3639502  40.4370156   0.2577017  36.0302672
  39.7156742   0.8712985  35.8910145  41.2263412   0.7934782  35.9519318
  50.8796896  11.7037305  38.4805082  49.9327232  11.5842656  38.4083409
  51.2279669  10.8159803  38.5631343  47.8843329  11.4990021  34.6809434
  47.7368292  10.5706729  34.8617004  48.7096823  11.5210112  34.1966509
  51.4877451  12.3218580  35.7674307  52.4123999  12.1161441  35.6298758
  51.3192755  12.0734981  36.6763648  42.6204065   2.3113572  36.2512296
  42.4748646   2.6253875  37.1436577  42.1429269   2.9298472  35.6983194
  51.2772767  12.8404247  31.1236398  51.4509645  12.2750670  30.3710251
  51.7701659  13.6405142  30.9415888  37.0949727   4.8518917  39.1899957
  36.5503195   5.6278724  39.3220231  37.9729077   5.1989721  39.0319078
  52.2647940  12.1571012  28.2233297  52.9598845  12.7777705  28.4420611
  52.6071090  11.3066363  28.4985674  37.8815749   3.9788813  42.0830114
  37.1397485   4.1271448  42.6694744  37.5608493   4.2397078  41.2196863
  54.1639363   9.6070717  29.7520627  54.6890687   9.9457990  29.0269947
  54.0761716   8.6717733  29.5683762  45.8259412  13.5204791  41.8810504
  46.1346538  13.2753938  42.7533204  46.6234894  13.7251429  41.3929374
  45.8480024  15.6742701  34.1115880  45.4085014  15.1819079  34.8048737
  46.5988141  15.1315668  33.8707956  38.3272363  11.8654242  34.1140509
  39.1530383  11.5658013  33.7339152  37.9766415  11.0961864  34.5630297
  43.2953896  11.2180710  36.1838182  42.6733905  10.5551415  35.8840410
  43.9658763  11.2441842  35.5011830  36.5280968   9.7840568  35.0729442
  35.6912876   9.3562742  34.8913443  36.5004613   9.9773011  36.0100233
  53.8533269  10.2403621  45.0571825  53.0628813  10.2227760  44.5176325
  53.6166624  10.7791915  45.8120862  53.9731144   7.0896087  42.3704554
  54.0229149   6.9246095  43.3120077  53.8645068   6.2223346  41.9802435
  42.8567403   9.7684633  29.6596643  43.0055523  10.4520097  29.0063315
  43.6633846   9.7489723  30.1746098  55.4749341   9.5093029  42.6146575
  55.1834149   9.8723009  43.4510036  54.8621472   8.7960037  42.4359907
  56.6745023   7.0745909  35.1349146  57.5091915   7.5135713  35.2986706
  56.8104152   6.5984562  34.3157391  40.6120036   5.7949811  30.6657712
  40.3666078   4.8912141  30.8637922  40.7815950   5.7966961  29.7237190
  39.8815683   1.5278168  28.1643873  39.1884928   1.6022523  27.5083909
  39.6367435   0.7638512  28.6865390  46.3562808  12.2632764  27.1308390
  45.7836776  12.8822951  26.6778862  46.9295602  12.8132125  27.6648312
  49.5760068  12.5469914  28.2616972  50.5090741  12.4815475  28.4649848
  49.4883281  13.3826181  27.8031505  52.2048085  11.8635784  25.2220920
  52.1261716  11.5295648  26.1156678  53.0257752  12.3557552  25.2212392
  46.7409607   3.5993576  24.4724443  47.6868712   3.4699784  24.5412861
  46.3623852   2.8608238  24.9493871  46.6248299   7.6511322  45.9325100
  47.5451309   7.8289921  46.1265146  46.5897882   6.7067368  45.7804799
  35.8430464   2.8449916  34.8578374  35.5233249   1.9915224  34.5652748
  35.2963893   3.0598494  35.6136342  39.6210372   5.5612357  38.5747881
  39.8396382   6.4929465  38.5935915  40.0336146   5.2020331  39.3602685
  35.7118724   6.4652828  36.8271496  35.0182196   6.0506780  36.3141450
  36.4591715   6.5073364  36.2304915  44.3569507   4.5642702  46.7815691
  43.8736589   5.3643062  46.9879580  44.4430446   4.5750647  45.8283135
  37.6255467   6.3971081  34.7037511  37.6026155   6.4958769  33.7519394
  37.9356103   7.2436232  35.0254677  40.2842845   8.4547236  38.8184125
  41.2386098   8.4231179  38.7514057  40.0855368   7.9937860  39.6334351
  40.8742227   7.0248352  41.3854923  41.6935116   7.5192431  41.4089760
  41.1479035   6.1080321  41.3572490  38.6393074  13.9966856  35.8354323
  38.5047542  13.2367257  35.2692321  38.2225136  14.7207756  35.3683112
  49.7752037   9.1803779  24.8430898  50.4787887   9.3853782  25.4588554
  49.0514685   9.7480541  25.1079982  50.6049847   4.9313641  30.9633168
  50.5485048   5.3882192  30.1240801  51.1578189   4.1704325  30.7856011
  41.7962200  14.8936173  36.0472766  41.6794584  15.8381605  35.9451456
  40.9754646  14.5909734  36.4358565  51.6838734   9.6186309  26.8929358
  52.5184338   9.1867507  26.7106833  51.5223077   9.4468322  27.8206253
  51.3384626   6.1218422  28.2585698  51.2833430   5.9562693  27.3174142
  50.7130682   6.8294455  28.4147887  36.1277141   1.3586486  42.0847120
  36.7736005   0.8485440  42.5734345  35.9194292   2.0955168  42.6590545
  48.6530533   8.4267334  47.5839260  49.5221693   8.6007986  47.2225895
  48.1737285   9.2461751  47.4614990  42.8216714  15.5464435  39.2628694
  43.7243960  15.5788045  39.5795189  42.5954084  14.6164886  39.2775030
  44.5770316  14.2995421  35.9238773  43.6265947  14.2997283  35.8103145
  44.8802802  13.5528156  35.4074807  60.3123009  20.1355960  36.9884535
  60.9501419  20.0162707  36.2847875  60.1943852  21.0836804  37.0472487
  57.1212715  20.0883388  36.9246060  56.7831227  19.9724453  36.0366595
  57.9902484  19.6874553  36.9047066  52.9799531  21.9418864  32.9142951
  52.4164396  21.8508801  32.1459238  52.8651926  21.1218769  33.3945443
  57.6032498  21.2418240  42.8832265  57.5921139  20.8471038  42.0112769
  57.7653138  20.5084312  43.4766037  58.5599090  25.6089832  28.2257416
  57.9087070  26.1943912  27.8391429  59.3543453  26.1396027  28.2852453
  52.4854717  22.6978969  28.6244550  53.2585593  22.1507956  28.4857426
  52.8380116  23.5623218  28.8359011  54.3239760  24.0255351  41.8311449
  54.0329626  24.9300982  41.7158116  54.9596744  24.0671879  42.5455519
  55.2495966  21.4032200  38.4212809  55.8459539  21.1788222  37.7069772
  55.3070938  20.6616945  39.0238257  54.8220995  18.8571635  26.2563000
  55.0746516  18.3353156  25.4946463  53.8845554  18.6937781  26.3589683
  59.8664278  17.8607414  34.0637743  60.6527367  17.4426837  33.7128160
  60.1302982  18.7653506  34.2319391  60.0374355  23.2980264  28.7626400
  59.4020188  23.3714890  29.4747305  59.7071761  23.8873863  28.0845479
  65.2672705  17.7982647  34.9670722  65.9997877  17.2281864  35.2008551
  64.5112060  17.4104247  35.4077227  54.5417284  20.7599741  28.4587375
  54.4253542  20.0844645  29.1268459  54.6519543  20.2732115  27.6419528
  56.8848824  20.2209888  32.1634064  56.5207032  19.6940509  32.8746986
  57.7415940  19.8308357  31.9900549  62.7898125  11.5104221  39.4265330
  62.4581450  12.3799632  39.2026545  62.1943739  11.1940505  40.1059361
  56.5254311  15.2499788  27.1595413  56.6928714  16.1180024  27.5265884
  56.3351481  15.4127070  26.2356702  59.2829645  23.7116767  38.8261243
  58.9830368  24.6141806  38.7177050  58.9380704  23.4448950  39.6782396
  52.7342126  20.1630564  34.8597947  51.8092623  20.0306778  35.0675639
  52.9826539  20.9424783  35.3567890  62.6826788  16.2299307  36.5058680
  61.7743666  16.1614715  36.2117441  62.6314384  16.7071252  37.3340506
  56.5043532  17.7057445  28.1442079  56.3843158  18.1514496  28.9827560
  55.8096121  18.0542763  27.5855618  50.0950937  19.8063837  35.6941736
  50.2243318  20.0598316  36.6081148  49.4148388  20.3991545  35.3746392
  56.7567654  17.6488953  44.4493578  55.9800988  18.2082873  44.4396442
  57.3958217  18.1345736  44.9708448  64.5488435  14.4315745  38.2836554
  63.9062815  14.7248279  37.6376349  64.0443363  14.3168666  39.0889751
  62.2028599  18.1778919  28.9722413  63.1146455  18.4106305  28.7970111
  61.6938246  18.7615963  28.4097492  55.0114027  20.4574406  44.0111545
  55.7528711  20.9959450  43.7346368  54.3051012  21.0840695  44.1683096
  60.4869366  22.6003546  42.6083706  60.8952722  22.1585957  41.8638338
  59.7646628  22.0256174  42.8617899  56.8400436  17.5376153  39.9817263
  57.6861631  17.9615567  40.1251912  56.7799074  16.8809778  40.6755826
  60.8098181  23.1604737  36.3635995  60.1807043  23.3250451  35.6612063
  60.4223843  23.5746347  37.1346959  64.6887413  24.0959175  33.7180359
  64.0038451  24.4758076  33.1677392  64.7731262  24.7054502  34.4512306
  59.9899882  15.1980522  41.6398437  59.7460813  15.9522582  41.1032712
  60.2659812  15.5765869  42.4745684  61.9438344  21.7419134  40.3175702
  62.1555240  22.3850894  39.6410083  61.8968093  20.9081451  39.8497632
  59.5464573  14.3536955  37.2212274  58.6849052  14.6518208  37.5129012
  59.5727008  14.5707354  36.2893307  56.3626143  22.8979145  33.6286080
  56.8264488  23.1766848  32.8390703  56.0982941  21.9962590  33.4459171
  53.2550224  22.4450627  36.5665843  53.8251581  22.8737895  35.9283328
  53.8458336  22.1633211  37.2650029  55.2995029  19.0202298  30.4375645
  56.0019072  19.4723341  30.9049572  54.9675657  18.3786116  31.0655538
  53.7475390  17.6114054  44.8126855  53.1174051  18.2930335  45.0462251
  53.6411478  17.4997136  43.8679993  49.0420363  17.2785850  35.7392779
  48.2519417  17.5343379  35.2632889  49.5331610  18.0934188  35.8444819
  63.0584172  24.6191089  38.4898060  63.8801616  24.2171277  38.2080741
  63.0546575  24.5159324  39.4414175  50.9935108  17.6430429  32.6976255
  50.1966271  17.7549124  33.2159751  50.7660700  17.9817082  31.8317146
  56.8240776  24.1675133  40.6458770  56.8885208  24.6295540  41.4816942
  56.1151700  23.5372498  40.7741080  47.3258066  17.5316341  38.1707770
  47.5766104  18.4163351  38.4365345  47.8617614  17.3520942  37.3982861
  56.5388793  25.8343240  30.5137750  56.4034468  26.6794776  30.9422598
  57.0798606  26.0362518  29.7503684  53.0256133  11.9134820  47.1752106
  52.6323079  11.3601019  47.8499750  53.8422273  12.2245398  47.5658623
  55.9424094  13.3292699  44.7672362  56.6833807  13.9299852  44.6876825
  56.1742017  12.5870337  44.2090405  51.0865432  18.5149066  43.0450592
  50.9718947  17.6134324  43.3457691  50.2309950  18.7612763  42.6935408
  58.1657270  26.4566807  44.6438092  57.7221124  25.6703185  44.3258997
  58.8274483  26.6445957  43.9781983  60.2638508  26.7369607  42.6719494
  60.2456983  27.5578488  42.1799763  61.1858428  26.6123682  42.8969635
  56.7211562  24.2513736  43.5143002  57.2539899  23.4902024  43.2842310
  56.1925643  23.9587388  44.2567157  59.8881257   9.3573802  39.0436644
  59.5445526  10.2475444  38.9675754  60.2560220   9.1675460  38.1806229
  47.9567108  21.6807333  31.8625246  48.7942330  22.0904341  31.6458954
  48.1345375  20.7406775  31.8325440  59.8531540  19.3482413  27.5509079
  59.3378163  20.1187018  27.7897466  59.5808848  18.6747549  28.1742140
  57.4378651  14.1932114  32.6094317  56.5820247  13.8038964  32.4299956
  57.8505602  14.2724075  31.7494103  58.9677797  11.7278457  37.0085877
  58.4642593  11.6908592  36.1953682  59.2608404  12.6371200  37.0682534
  55.2120683  11.8117187  36.0152059  56.0773680  11.6159996  35.6557948
  55.2798192  11.5827539  36.9421416  64.8265814  22.1014768  29.4862252
  64.0495257  21.7625927  29.0417415  65.5057295  22.1067391  28.8117217
  59.6417843  17.2209505  29.3768860  59.3367978  17.5355654  30.2279003
  60.5948285  17.2990925  29.4196193  58.0864275  23.3799729  31.0261814
  57.5585636  22.6452488  30.7135052  57.5851777  24.1574405  30.7801782
  63.0657121  21.5748749  36.1428860  62.4080795  22.2648010  36.2308989
  63.8697520  21.9645181  36.4862847  52.8183002  14.0419395  33.3868426
  53.3926754  13.8194576  32.6541619  53.4053985  14.1108089  34.1397027
  61.8762580  19.9293122  34.1932802  62.3894461  20.5623114  34.6954512
  62.5263803  19.3294317  33.8276162  53.1452589  16.0723856  27.4064311
  52.3089902  16.4098542  27.7273586  53.0057359  15.9372836  26.4691448
  55.1205670  10.9160644  32.1143495  54.4670082  10.6009661  31.4900110
  55.0786144  10.2936384  32.8403318  56.2316875  21.1979939  24.0296787
  55.3243937  20.9669192  24.2287936  56.7287907  20.4017558  24.2170769
  59.1384954  29.9077446  26.9493473  58.4646653  30.2109143  27.5578431
  59.5250776  30.7106526  26.5998930  58.3543410  17.4042577  36.4391143
  57.4365972  17.6257524  36.2812831  58.7703554  17.4788888  35.5802850
  59.1378458  18.8033993  31.5693823  59.8850277  19.3155390  31.2600945
  59.4070048  18.4818046  32.4298217  57.4105108  21.2992534  28.5520777
  56.5016328  21.0151567  28.6493247  57.4400192  21.7191612  27.6924084
  62.6424376  24.9099123  32.3211945  62.1886703  24.0690033  32.3777135
  62.0118342  25.5460522  32.6586725  61.5857295  15.8391109  33.5512612
  60.8480052  15.3268495  33.8822855  61.8384069  15.3991491  32.7395889
  61.0857315  26.7475620  33.2561763  61.3780289  27.3080677  32.5374129
  61.5955936  27.0404181  34.0114922  61.6868923   8.6167361  34.1454382
  61.9927799   7.7564725  33.8580297  62.4121527   9.2084981  33.9453375
  47.9793279  19.0198048  32.5335979  47.7817678  18.4267409  31.8087046
  47.4239943  18.7150258  33.2511918  55.9590002  18.9121154  34.6530573
  56.0138612  17.9594991  34.5773049  55.1481204  19.0680593  35.1371871
  57.1081196  22.8401277  25.8908856  56.6700626  22.1237136  25.4314493
  57.8491637  23.0677392  25.3293947  53.8982362  17.5298214  32.4120951
  53.0850228  17.8292385  32.8186144  54.3941356  17.1353903  33.1295434
  56.0490940  27.5255971  34.3455216  56.0067119  27.7516817  33.4163748
  56.9653639  27.2919346  34.4941017  59.4956574  17.9940039  41.2435845
  59.8505962  18.2211512  42.1030311  60.1428705  18.3258415  40.6213101
  65.2254311  21.1158474  31.9485174  65.0872209  21.3060070  31.0206364
  64.8690530  21.8777857  32.4053226  53.3896437  15.1016570  38.0282186
  54.0295816  14.9605329  37.3305150  52.5573968  14.8151083  37.6520788
  65.2523690  23.1835001  36.9596446  65.6860197  23.0910291  37.8079500
  65.9655271  23.1592502  36.3216462  54.1656741  24.4019000  34.1417179
  54.9597339  23.9069320  33.9399754  53.4548433  23.8736863  33.7784884
  58.9851585  26.7837096  38.4929546  59.0388608  27.3528032  39.2607262
  58.1166367  26.9538981  38.1283584  50.4739504  18.5462082  30.2176932
  49.5437092  18.4846537  30.4346894  50.5696976  18.0238034  29.4213573
  50.3925053  15.0716895  32.8055173  50.6531871  15.9862228  32.6964334
  51.2142226  14.6041337  32.9551786  51.8649979  16.4854652  39.9753998
  52.5373032  16.2772014  39.3266647  51.0379765  16.2876738  39.5359230
  66.1139240  23.2258702  39.4929331  66.3075130  24.1304513  39.7388606
  66.0139858  22.7666121  40.3267916  57.7675551  13.1116593  41.9919659
  57.1203466  13.8106542  41.8984135  58.5376566  13.5452737  42.3595907
  61.1754349  23.3765445  45.0670212  61.0239855  23.1475997  44.1500296
  61.1659028  24.3336046  45.0801557  57.9439685  20.9497358  40.0516478
  58.8731745  21.1008517  39.8785446  57.5230715  21.0381378  39.1965125
  56.7428017  24.9748022  37.8215016  56.6039103  24.6066806  38.6940954
  55.9542613  25.4895661  37.6498974  57.3376169  30.0757118  29.1640552
  57.5127925  29.6045162  29.9786175  56.6508957  30.7022885  29.3921813
  58.2933232  24.3529625  35.2103854  57.9583065  24.3130395  36.1061504
  57.7937178  23.6874341  34.7374264  52.2677476  19.7597255  40.7356435
  52.1297274  19.0277494  41.3367974  53.1782399  19.6706155  40.4540623
  61.2292424  21.6985659  25.4840913  60.6121594  20.9732487  25.3873966
  60.7608912  22.4595019  25.1407988  54.8959777  19.4717214  40.2240115
  55.6059395  18.8310406  40.1826733  54.8529085  19.7230109  41.1466295
  62.8846555  26.4084567  43.1446694  62.8259102  25.7243788  42.4777277
  63.2866074  27.1503557  42.6927320  53.6088711  16.4582432  42.0435754
  53.0726068  16.0073170  42.6957350  53.0205419  16.5928341  41.3006218
  53.0190970  15.9171083  24.6062218  52.1420436  15.7959884  24.2424464
  53.4948723  15.1257162  24.3541106  62.8863963  24.3724151  41.3760673
  61.9990741  24.0350073  41.4987072  63.4562514  23.6407183  41.6129439
  49.3427832  15.5938440  39.1288749  49.2586021  14.9864109  38.3939158
  48.5210538  16.0847458  39.1298245  56.4165116  29.0325604  38.3421917
  56.3435288  29.8380575  38.8541221  55.9742509  29.2317569  37.5169938
  56.2054896  28.2697374  31.8524738  55.4222418  28.8119054  31.9462963
  56.9047641  28.7871353  32.2518979  59.5151546  14.0792003  34.4958944
  60.0120245  13.3261965  34.1760014  58.7438527  14.1156320  33.9302153
  67.3681303  19.7832369  36.1377235  67.3571179  20.6657084  35.7671168
  66.4998683  19.4303920  35.9431772  58.8763800  28.9312438  40.4980075
  59.5891772  29.5659903  40.4255977  58.3853828  29.0276304  39.6820077
  60.5981326  22.8363690  32.0697367  59.6637605  22.9565153  31.9002071
  60.7757995  21.9336157  31.8057377  56.0986515  16.2209386  34.2230628
  55.7284302  15.6680427  34.9111534  56.5945607  15.6167520  33.6705628
  63.9853878  18.6781010  32.6047401  64.4514330  19.5109001  32.5307704
  64.4361378  18.2125991  33.3092660  62.0530109  25.0224831  29.6033553
  62.3289953  24.9081426  30.5127427  61.1834608  24.6242316  29.5645726
  61.9570541  11.0461597  36.6438302  61.0433620  11.2765823  36.8120509
  62.3863642  11.1300041  37.4952335  61.7276999  19.2351489  39.1438196
  61.0748449  19.4827396  38.4890649  62.1057379  18.4215627  38.8100674
  58.6884173  29.2711182  33.2466367  58.8706567  28.4532838  33.7094119
  59.5117159  29.4878874  32.8091257  59.0226338  28.1979367  30.5081415
  59.5514105  27.6871821  29.8951577  59.2854558  27.8821897  31.3726948
  57.7764572  19.9771300  45.6304234  57.1005209  19.8765429  46.3006609
  58.5992206  19.8210513  46.0940231  44.1161086  18.7848836  36.9721192
  44.1545185  18.2512427  37.7658310  43.6101379  18.2584042  36.3532169
  51.4951848  13.6313377  40.4683734  51.5593175  14.4928208  40.0561132
  51.4318968  13.0187379  39.7356093  50.9704121  15.7036509  44.1156769
  51.5976160  15.3213587  44.7294293  50.1132040  15.4850711  44.4812461
  61.3698229  26.1099485  45.7210504  61.9138133  26.7229443  45.2265459
  60.7885074  26.6679063  46.2377517  47.7469663  17.5112939  30.0475123
  48.0423105  16.6023617  29.9942177  46.8457699  17.4900678  29.7256126
  59.6555742  29.2320203  36.8525532  59.5306882  28.4309942  36.3436477
  60.3134833  29.7266396  36.3639502  51.2763910  15.5868935  36.0302672
  50.5550496  16.2004903  35.8910145  52.0657166  16.1226700  35.9519318
  61.7190651  27.0329223  38.4805082  60.7720986  26.9134574  38.4083409
  62.0673424  26.1451721  38.5631343  54.0790224  12.9223362  42.3043324
  54.6024626  13.1685658  43.0669633  53.8602557  13.7543396  41.8846461
  49.4757505  15.1927036  30.1714448  49.1470211  14.3124415  29.9889554
  49.8296876  15.1374705  31.0590838  58.7237084  26.8281939  34.6809434
  58.5762046  25.8998646  34.8617004  59.5490577  26.8502030  34.1966509
  52.5899328  15.4800006  30.5389926  52.9295401  16.0085927  29.8168535
  53.0371449  15.8180412  31.3148493  62.3271206  27.6510498  35.7674307
  63.2517753  27.4453359  35.6298758  62.1586509  27.4026899  36.6763648
  55.2842769  13.8637057  39.9892994  54.9439589  13.0644870  40.3913674
  54.5781775  14.1638768  39.4169827  55.9359241  10.9486369  38.4420317
  56.7585310  10.4746847  38.3199208  56.1797304  11.7276853  38.9419004
  54.5767475  13.9774628  28.7383219  55.2975838  14.3555880  28.2346936
  53.9532779  14.6963504  28.8418197  58.7198598  14.6819777  29.6741551
  58.9362213  15.5644414  29.3730379  58.2392665  14.2905990  28.9447193
  53.4597820  17.6405490  36.2512296  53.3142400  17.9545793  37.1436577
  52.9823023  18.2590390  35.6983194  55.3194202  14.6308038  36.2993185
  55.3055771  13.7349131  35.9625483  56.0366631  14.6378702  36.9331471
  57.1720333  15.0645378  38.3446313  56.9138111  15.9862449  38.3430643
  56.6405374  14.6675813  39.0346777  62.1166522  28.1696165  31.1236398
  62.2903400  27.6042588  30.3710251  62.6095413  28.9697060  30.9415888
  54.7231098  13.5122418  31.5680756  54.8447010  12.5839064  31.7671643
  54.4333141  13.5261104  30.6559071  57.5922289  11.1977329  34.7047475
  57.6143986  11.2616662  33.7499455  58.0090348  10.3581837  34.8987982
  67.9705913  20.9332588  32.7426698  68.4137059  20.1839913  32.3445821
  67.0932423  20.9242724  32.3600430  63.1041694  27.4862930  28.2233297
  63.7992599  28.1069622  28.4420611  63.4464845  26.6358281  28.4985674
  65.0033118  24.9362635  29.7520627  65.5284442  25.2749908  29.0269947
  64.9155470  24.0009650  29.5683762  56.6653166  28.8496709  41.8810504
  56.9740293  28.6045855  42.7533204  57.4628648  29.0543347  41.3929374
  54.2072178  15.0254415  45.7770688  54.2560333  15.9016538  45.3948458
  54.7494692  14.4831808  45.2042331  64.6927024  25.5695539  45.0571825
  63.9022567  25.5519678  44.5176325  64.4560378  26.1083832  45.8120862
  64.8124899  22.4188005  42.3704554  64.8622904  22.2538013  43.3120077
  64.7038822  21.5515264  41.9802435  53.6961157  25.0976551  29.6596643
  53.8449278  25.7812015  29.0063315  54.5027601  25.0781641  30.1746098
  62.1028661  18.4018933  43.6863860  63.0038524  18.2625398  43.3947858
  62.1776636  18.5673388  44.6262038  56.4371466  15.7785788  42.5317047
  55.5674776  16.0719354  42.2599635  56.6730947  16.3626233  43.2524310
  66.3143096  24.8384947  42.6146575  66.0227904  25.2014927  43.4510036
  65.7015227  24.1251955  42.4359907  67.5138778  22.4037826  35.1349146
  68.3485669  22.8427630  35.2986706  67.6497907  21.9276480  34.3157391
  64.5630284  19.9617561  41.0826633  65.0384405  20.1545208  40.2745485
  63.6395849  20.0176747  40.8370017  51.4513790  21.1241728  30.6657712
  51.2059832  20.2204058  30.8637922  51.6209705  21.1258879  29.7237190
  59.1410500  11.9965405  40.0482467  59.6592444  12.7326432  39.7228956
  58.7865633  12.3029398  40.8829226  50.7209438  16.8570086  28.1643873
  50.0278683  16.9314441  27.5083909  50.4761190  16.0930430  28.6865390
  59.3923094   8.4165687  35.5683364  59.6724848   7.7488876  36.1943790
  60.1773701   8.6094783  35.0558028  57.1956563  27.5924681  27.1308390
  56.6230530  28.2114868  26.6778862  57.7689357  28.1424043  27.6648312
  63.2631953  16.8383321  39.3154939  64.2149376  16.9381419  39.3367163
  63.0935403  16.0461590  39.8253023  61.2846332  13.9238905  39.5014340
  60.6896264  14.2043917  38.8060828  60.9996029  14.4132805  40.2731081
  60.4153823  27.8761831  28.2616972  61.3484496  27.8107393  28.4649848
  60.3277036  28.7118098  27.8031505  63.0441839  27.1927702  25.2220920
  62.9655471  26.8587565  26.1156678  63.8651506  27.6849470  25.2212392
  65.7420031  20.0589441  38.4297239  65.7096351  19.1205442  38.6156922
  66.3520654  20.1373478  37.6963063  57.5803361  18.9285494  24.4724443
  58.5262466  18.7991702  24.5412861  57.2017606  18.1900156  24.9493871
  65.8914519  16.8500484  38.4755522  65.3753568  16.0658941  38.2885451
  66.7754468  16.5219201  38.6402041  63.5525246  10.5941500  34.4351334
  63.3550067  10.2856588  35.3194666  64.1624952  11.3203139  34.5649264
  69.6411878  19.2613310  38.1677727  68.9145041  19.1269275  37.5594218
  69.2259164  19.5690139  38.9734445  57.4642054  22.9803240  45.9325100
  58.3845063  23.1581839  46.1265146  57.4291637  22.0359285  45.7804799
  55.7646279  16.8535470  24.4079328  54.8577734  16.5568583  24.4842041
  56.0422260  16.5565288  23.5413614  46.6824219  18.1741834  34.8578374
  46.3627003  17.3207142  34.5652748  46.1357647  18.3890412  35.6136342
  57.3808344  11.3972360  30.5623569  56.5709073  11.0519445  30.9378815
  58.0692761  11.0879904  31.1511181  59.3098893  10.4750407  32.1847866
  59.8629931  10.8945860  32.8437889  59.5468979   9.5486155  32.2270822
  55.3331992  16.4637481  47.9650630  55.2328719  17.4131837  47.8962721
  55.1153534  16.1355719  47.0926700  54.5345063  13.7122406  24.5491307
  55.3964227  14.0377304  24.8087124  54.7195407  12.9253901  24.0364373
  62.6877700  12.5850932  31.6926530  62.1076369  13.2435736  31.3104582
  62.4213632  11.7628277  31.2813948  61.1381266  11.9855990  33.8947850
  61.6381044  12.0972524  33.0862169  61.7816874  11.6817043  34.5348659
  55.1963262  19.8934619  46.7815691  54.7130344  20.6934979  46.9879580
  55.2824201  19.9042564  45.8283135  48.4649221  21.7262999  34.7037511
  48.4419910  21.8250686  33.7519394  48.7749858  22.5728150  35.0254677
  51.7135981  22.3540270  41.3854923  52.5328870  22.8484349  41.4089760
  51.9872789  21.4372238  41.3572490  61.4702578  14.7451022  30.7482878
  60.5828433  15.0300673  30.5303073  61.8856567  14.5844786  29.9010155
  64.8217114  14.7697543  34.4637218  65.5977504  15.2593996  34.7361834
  64.0965248  15.1955598  34.9209087  67.2589672  15.4825163  35.5211158
  67.8534163  15.2420899  34.8104466  67.3316256  14.7632293  36.1484694
  60.6145791  24.5095697  24.8430898  61.3181641  24.7145700  25.4588554
  59.8908440  25.0772459  25.1079982  61.4443601  20.2605558  30.9633168
  61.3878803  20.7174110  30.1240801  61.9971944  19.4996243  30.7856011
  65.2548407  16.0495290  31.7883288  64.9985342  15.6491926  32.6191496
  64.6301275  16.7639084  31.6633427  69.5660745  18.7891363  34.2954579
  69.0060303  18.8584553  35.0686141  68.9604249  18.6132348  33.5754076
  62.5232489  24.9478226  26.8929358  63.3578092  24.5159425  26.7106833
  62.3616831  24.7760240  27.8206253  62.1778381  21.4510340  28.2585698
  62.1227185  21.2854611  27.3174142  61.5524436  22.1586372  28.4147887
  46.9670896  16.6878404  42.0847120  47.6129759  16.1777358  42.5734345
  46.7588047  17.4247086  42.6590545  59.4924288  23.7559251  47.5839260
  60.3615448  23.9299904  47.2225895  59.0131039  24.5753668  47.4614990
  55.4874506  10.9518449  27.8371016  55.4753176  11.8960289  27.9939287
  56.3797928  10.7688594  27.5430477  55.4164070  29.6287339  35.9238773
  54.4659701  29.6289201  35.8103145  55.7196556  28.8820074  35.4074807
  59.3026626   7.5461225  32.0916953  58.5359021   6.9919712  32.2373635
  59.7137331   7.6183094  32.9531104  51.3068387  13.8346021  46.1822134
  52.1699848  13.4782826  46.3925459  50.7333797  13.4959916  46.8697538
  67.9606470  35.4175305  36.9246060  67.6224981  35.3016370  36.0366595
  68.8296238  35.0166471  36.9047066  63.8193286  37.2710782  32.9142951
  63.2558151  37.1800719  32.1459238  63.7045681  36.4510686  33.3945443
  68.4426253  36.5710157  42.8832265  68.4314894  36.1762955  42.0112769
  68.6046892  35.8376230  43.4766037  61.3657718  38.7661974  35.7527171
  62.1579009  38.4252798  35.3373470  61.6054368  38.8756949  36.6729324
  69.3992844  40.9381750  28.2257416  68.7480824  41.5235830  27.8391429
  70.1937207  41.4687945  28.2852453  63.3248471  38.0270887  28.6244550
  64.0979347  37.4799874  28.4857426  63.6773870  38.8915136  28.8359011
  65.1633514  39.3547269  41.8311449  64.8723380  40.2592900  41.7158116
  65.7990498  39.3963797  42.5455519  66.0889721  36.7324118  38.4212809
  66.6853293  36.5080140  37.7069772  66.1464692  35.9908863  39.0238257
  65.6614749  34.1863553  26.2563000  65.9140270  33.6645074  25.4946463
  64.7239308  34.0229698  26.3589683  65.3811038  36.0891659  28.4587375
  65.2647296  35.4136562  29.1268459  65.4913298  35.6024033  27.6419528
  67.7242579  35.5501806  32.1634064  67.3600786  35.0232427  32.8746986
  68.5809695  35.1600275  31.9900549  67.3648066  30.5791706  27.1595413
  67.5322468  31.4471942  27.5265884  67.1745235  30.7418987  26.2356702
  70.1223399  39.0408685  38.8261243  69.8224122  39.9433723  38.7177050
  69.7774459  38.7740868  39.6782396  63.5735881  35.4922481  34.8597947
  62.6486377  35.3598695  35.0675639  63.8220294  36.2716701  35.3567890
  67.3437287  33.0349363  28.1442079  67.2236912  33.4806414  28.9827560
  66.6489875  33.3834681  27.5855618  60.9344692  35.1355755  35.6941736
  61.0637073  35.3890234  36.6081148  60.2542143  35.7283463  35.3746392
  65.1044179  45.8053005  31.7932211  65.0268209  46.7560830  31.8720691
  64.5005823  45.4598877  32.4507137  67.5961409  32.9780870  44.4493578
  66.8194743  33.5374790  44.4396442  68.2351972  33.4637653  44.9708448
  65.8507781  35.7866324  44.0111545  66.5922465  36.3251368  43.7346368
  65.1444766  36.4132612  44.1683096  67.6794191  32.8668071  39.9817263
  68.5255386  33.2907484  40.1251912  67.6192828  32.2101695  40.6755826
  70.3858328  29.6828872  37.2212274  69.5242807  29.9810126  37.5129012
  70.4120762  29.8999271  36.2893307  67.2019897  38.2271063  33.6286080
  67.6658243  38.5058766  32.8390703  66.9376695  37.3254507  33.4459171
  64.0943978  37.7742544  36.5665843  64.6645335  38.2029813  35.9283328
  64.6852090  37.4925129  37.2650029  66.1388783  34.3494215  30.4375645
  66.8412827  34.8015259  30.9049572  65.8069412  33.7078034  31.0655538
  64.5869145  32.9405972  44.8126855  63.9567805  33.6222253  45.0462251
  64.4805233  32.8289053  43.8679993  59.8814117  32.6077768  35.7392779
  59.0913171  32.8635296  35.2632889  60.3725365  33.4226106  35.8444819
  61.8328863  32.9722347  32.6976255  61.0360026  33.0841041  33.2159751
  61.6054455  33.3108999  31.8317146  67.6634530  39.4967050  40.6458770
  67.7278963  39.9587458  41.4816942  66.9545454  38.8664415  40.7741080
  67.3782548  41.1635158  30.5137750  67.2428223  42.0086694  30.9422598
  67.9192360  41.3654435  29.7503684  63.8649887  27.2426738  47.1752106
  63.4716833  26.6892936  47.8499750  64.6816028  27.5537316  47.5658623
  60.8311945  38.6810596  31.0865675  61.3436466  39.4753846  31.2371240
  61.4834658  37.9836886  31.0199277  62.6406830  41.7976352  33.1688429
  62.8173458  42.7194317  32.9809413  63.4363663  41.4834771  33.5982808
  66.7817848  28.6584617  44.7672362  67.5227562  29.2591770  44.6876825
  67.0135771  27.9162255  44.2090405  61.9259186  33.8440984  43.0450592
  61.8112702  32.9426241  43.3457691  61.0703704  34.0904681  42.6935408
  69.0051024  41.7858724  44.6438092  68.5614878  40.9995103  44.3258997
  69.6668238  41.9737875  43.9781983  63.7638145  43.3154526  39.1698771
  64.3145571  43.1871589  38.3975765  62.9249621  43.6149415  38.8193664
  67.5605316  39.5805654  43.5143002  68.0933653  38.8193942  43.2842310
  67.0319398  39.2879306  44.2567157  70.6925294  34.6774331  27.5509079
  70.1771918  35.4478935  27.7897466  70.4202603  34.0039467  28.1742140
  68.2772405  29.5224032  32.6094317  67.4214002  29.1330882  32.4299956
  68.6899357  29.6015992  31.7494103  69.8071552  27.0570375  37.0085877
  69.3036347  27.0200510  36.1953682  70.1002159  27.9663118  37.0682534
  66.0514438  27.1409105  36.0152059  66.9167434  26.9451913  35.6557948
  66.1191947  26.9119456  36.9421416  68.9258029  38.7091646  31.0261814
  68.3979391  37.9744406  30.7135052  68.4245532  39.4866323  30.7801782
  63.6576757  29.3711313  33.3868426  64.2320509  29.1486494  32.6541619
  64.2447739  29.4400007  34.1397027  63.9846344  31.4015774  27.4064311
  63.1483656  31.7390460  27.7273586  63.8451114  31.2664753  26.4691448
  65.9599424  26.2452561  32.1143495  65.3063837  25.9301579  31.4900110
  65.9179899  25.6228302  32.8403318  67.0710629  36.5271857  24.0296787
  66.1637691  36.2961110  24.2287936  67.5681661  35.7309476  24.2170769
  69.9778708  45.2369364  26.9493473  69.3040407  45.5401060  27.5578431
  70.3644530  46.0398444  26.5998930  69.1937165  32.7334495  36.4391143
  68.2759726  32.9549442  36.2812831  69.6097308  32.8080805  35.5802850
  69.9772213  34.1325911  31.5693823  70.7244032  34.6447308  31.2600945
  70.2463802  33.8109963  32.4298217  68.2498863  36.6284451  28.5520777
  67.3410082  36.3443484  28.6493247  68.2793947  37.0483530  27.6924084
  58.8187033  34.3489966  32.5335979  58.6211433  33.7559326  31.8087046
  58.2633697  34.0442176  33.2511918  66.7983757  34.2413072  34.6530573
  66.8532367  33.2886908  34.5773049  65.9874959  34.3972511  35.1371871
  67.9474951  38.1693195  25.8908856  67.5094381  37.4529054  25.4314493
  68.6885391  38.3969310  25.3293947  64.7376117  32.8590132  32.4120951
  63.9243982  33.1584302  32.8186144  65.2335111  32.4645820  33.1295434
  66.8884695  42.8547889  34.3455216  66.8460873  43.0808735  33.4163748
  67.8047393  42.6211263  34.4941017  64.2290192  30.4308487  38.0282186
  64.8689571  30.2897246  37.3305150  63.3967722  30.1443001  37.6520788
  65.0050495  39.7310918  34.1417179  65.7991094  39.2361238  33.9399754
  64.2942188  39.2028781  33.7784884  69.8245340  42.1129013  38.4929546
  69.8782362  42.6819950  39.2607262  68.9560121  42.2830898  38.1283584
  61.3133259  33.8753999  30.2176932  60.3830847  33.8138455  30.4346894
  61.4090731  33.3529952  29.4213573  61.2318808  30.4008812  32.8055173
  61.4925625  31.3154145  32.6964334  62.0535980  29.9333255  32.9551786
  62.7043733  31.8146569  39.9753998  63.3766787  31.6063932  39.3266647
  61.8773520  31.6168655  39.5359230  68.6069305  28.4408510  41.9919659
  67.9597220  29.1398460  41.8984135  69.3770321  28.8744654  42.3595907
  68.7833440  36.2789275  40.0516478  69.7125500  36.4300435  39.8785446
  68.3624470  36.3673296  39.1965125  67.5821771  40.3039940  37.8215016
  67.4432857  39.9358724  38.6940954  66.7936368  40.8187579  37.6498974
  68.1769923  45.4049036  29.1640552  68.3521679  44.9337079  29.9786175
  67.4902711  46.0314802  29.3921813  69.1326987  39.6821542  35.2103854
  68.7976819  39.6422312  36.1061504  68.6330932  39.0166258  34.7374264
  63.1071231  35.0889172  40.7356435  62.9691028  34.3569411  41.3367974
  64.0176154  34.9998072  40.4540623  65.7353531  34.8009132  40.2240115
  66.4453150  34.1602324  40.1826733  65.6922839  35.0522027  41.1466295
  64.4482465  31.7874350  42.0435754  63.9119822  31.3365088  42.6957350
  63.8599174  31.9220258  41.3006218  62.7431009  48.5538399  35.9380413
  62.9827607  49.1856923  36.6159431  61.9000205  48.2026439  36.2245772
  63.8584724  31.2463001  24.6062218  62.9814190  31.1251802  24.2424464
  64.3342477  30.4549079  24.3541106  60.1821586  30.9230357  39.1288749
  60.0979775  30.3156027  38.3939158  59.3604293  31.4139376  39.1298245
  67.2558871  44.3617521  38.3421917  67.1829042  45.1672493  38.8541221
  66.8136264  44.5609487  37.5169938  67.0448650  43.5989291  31.8524738
  66.2616172  44.1410972  31.9462963  67.7441395  44.1163271  32.2518979
  70.3545300  29.4083921  34.4958944  70.8514000  28.6553883  34.1760014
  69.5832282  29.4448237  33.9302153  69.7157554  44.2604355  40.4980075
  70.4285526  44.8951820  40.4255977  69.2247583  44.3568221  39.6820077
  66.9380269  31.5501304  34.2230628  66.5678057  30.9972344  34.9111534
  67.4339361  30.9459437  33.6705628  64.7669468  42.0098799  41.3185646
  65.4678927  42.6435282  41.4715040  64.2964583  42.3513530  40.5581285
  69.5277927  44.6003099  33.2466367  69.7100322  43.7824755  33.7094119
  70.3510913  44.8170792  32.8091257  69.8620093  43.5271285  30.5081415
  70.3907859  43.0163739  29.8951577  70.1248313  43.2113815  31.3726948
  68.6158327  35.3063217  45.6304234  67.9398964  35.2057347  46.3006609
  69.4385960  35.1502431  46.0940231  60.3637186  41.5435154  38.2516749
  60.9490622  40.7978842  38.3844653  60.1662024  41.8539111  39.1353413
  63.2175841  44.5786401  33.2679191  62.5486216  45.0632529  32.7843231
  63.0788711  44.8255622  34.1822570  67.3581109  46.6130145  39.8661850
  67.9099417  46.7761766  40.6310935  67.6987303  47.2034583  39.1941874
  62.3345603  28.9605295  40.4683734  62.3986929  29.8220125  40.0561132
  62.2712723  28.3479296  39.7356093  61.8097875  31.0328427  44.1156769
  62.4369914  30.6505504  44.7294293  60.9525794  30.8142629  44.4812461
  58.5863418  32.8404856  30.0475123  58.8816859  31.9315535  29.9942177
  57.6851454  32.8192596  29.7256126  62.1157665  30.9160853  36.0302672
  61.3944251  31.5296821  35.8910145  62.9050921  31.4518618  35.9519318
  64.9183978  28.2515279  42.3043324  65.4418380  28.4977576  43.0669633
  64.6996312  29.0835314  41.8846461  60.3151260  30.5218954  30.1714448
  59.9863966  29.6416333  29.9889554  60.6690630  30.4666623  31.0590838
  69.5630838  42.1573857  34.6809434  69.4155801  41.2290564  34.8617004
  70.3884332  42.1793947  34.1966509  63.4293083  30.8091924  30.5389926
  63.7689155  31.3377845  29.8168535  63.8765203  31.1472330  31.3148493
  66.1236524  29.1928974  39.9892994  65.7833344  28.3936787  40.3913674
  65.4175530  29.4930685  39.4169827  66.7752995  26.2778287  38.4420317
  67.5979065  25.8038765  38.3199208  67.0191059  27.0568771  38.9419004
  65.4161230  29.3066545  28.7383219  66.1369592  29.6847798  28.2346936
  64.7926534  30.0255422  28.8418197  69.5592353  30.0111694  29.6741551
  69.7755967  30.8936332  29.3730379  69.0786420  29.6197908  28.9447193
  64.2991574  32.9697407  36.2512296  64.1536155  33.2837711  37.1436577
  63.8216778  33.5882308  35.6983194  66.1587957  29.9599955  36.2993185
  66.1449526  29.0641049  35.9625483  66.8760385  29.9670619  36.9331471
  68.0114088  30.3937296  38.3446313  67.7531866  31.3154366  38.3430643
  67.4799128  29.9967730  39.0346777  58.7737236  35.5102752  39.1899957
  58.2290704  36.2862560  39.3220231  59.6516586  35.8573556  39.0319078
  65.5624853  28.8414336  31.5680756  65.6840764  27.9130982  31.7671643
  65.2726895  28.8553022  30.6559071  68.4316043  26.5269246  34.7047475
  68.4537740  26.5908579  33.7499455  68.8484102  25.6873755  34.8987982
  59.5603258  34.6372648  42.0830114  58.8184994  34.7855284  42.6694744
  59.2396002  34.8980914  41.2196863  67.5046921  44.1788626  41.8810504
  67.8134047  43.9337773  42.7533204  68.3022403  44.3835265  41.3929374
  67.5267533  46.3326536  34.1115880  67.0872523  45.8402915  34.8048737
  68.2775650  45.7899504  33.8707956  60.0059872  42.5238077  34.1140509
  60.8317892  42.2241849  33.7339152  59.6553924  41.7545699  34.5630297
  64.9741405  41.8764545  36.1838182  64.3521414  41.2135250  35.8840410
  65.6446272  41.9025677  35.5011830  58.2068477  40.4424403  35.0729442
  57.3700385  40.0146578  34.8913443  58.1792122  40.6356847  36.0100233
  65.0465932  30.3546333  45.7770688  65.0954088  31.2308456  45.3948458
  65.5888447  29.8123726  45.2042331  64.5354912  40.4268468  29.6596643
  64.6843032  41.1103933  29.0063315  65.3421355  40.4073558  30.1746098
  67.2765221  31.1077706  42.5317047  66.4068530  31.4011272  42.2599635
  67.5124701  31.6918151  43.2524310  62.2907545  36.4533646  30.6657712
  62.0453587  35.5495976  30.8637922  62.4603459  36.4550797  29.7237190
  69.9804255  27.3257322  40.0482467  70.4986199  28.0618349  39.7228956
  69.6259388  27.6321316  40.8829226  61.5603192  32.1862004  28.1643873
  60.8672437  32.2606359  27.5083909  61.3154944  31.4222347  28.6865390
  68.0350317  42.9216599  27.1308390  67.4624284  43.5406786  26.6778862
  68.6083111  43.4715961  27.6648312  68.4197116  34.2577412  24.4724443
  69.3656221  34.1283620  24.5412861  68.0411361  33.5192074  24.9493871
  68.3035808  38.3095158  45.9325100  69.2238818  38.4873757  46.1265146
  68.2685391  37.3651203  45.7804799  66.6040033  32.1827388  24.4079328
  65.6971488  31.8860501  24.4842041  66.8816014  31.8857206  23.5413614
  61.2997881  36.2196192  38.5747881  61.5183891  37.1513300  38.5935915
  61.7123655  35.8604167  39.3602685  68.2202099  26.7264278  30.5623569
  67.4102827  26.3811363  30.9378815  68.9086516  26.4171821  31.1511181
  70.1492647  25.8042325  32.1847866  70.7023686  26.2237778  32.8437889
  70.3862733  24.8778073  32.2270822  66.1725746  31.7929398  47.9650630
  66.0722473  32.7423755  47.8962721  65.9547288  31.4647637  47.0926700
  65.3738818  29.0414323  24.5491307  66.2357982  29.3669222  24.8087124
  65.5589162  28.2545819  24.0364373  66.0357016  35.2226537  46.7815691
  65.5524098  36.0226897  46.9879580  66.1217955  35.2334482  45.8283135
  61.9630354  39.1131072  38.8184125  62.9173607  39.0815014  38.7514057
  61.7642877  38.6521695  39.6334351  62.5529736  37.6832188  41.3854923
  63.3722625  38.1776266  41.4089760  62.8266544  36.7664156  41.3572490
  60.3180583  44.6550691  35.8354323  60.1835051  43.8951092  35.2692321
  59.9012645  45.3791591  35.3683112  63.4749709  45.5520008  36.0472766
  63.3582093  46.4965441  35.9451456  62.6542155  45.2493570  36.4358565
  57.8064650  32.0170322  42.0847120  58.4523514  31.5069276  42.5734345
  57.5981801  32.7539003  42.6590545  66.3268261  26.2810366  27.8371016
  66.3146931  27.2252206  27.9939287  67.2191683  26.0980512  27.5430477
  64.5004223  46.2048270  39.2628694  65.4031469  46.2371880  39.5795189
  64.2741593  45.2748721  39.2775030  66.2557825  44.9579257  35.9238773
  65.3053456  44.9581118  35.8103145  66.5590311  44.2111991  35.4074807
  70.1420380  22.8753143  32.0916953  69.3752776  22.3211630  32.2373635
  70.5531085  22.9475012  32.9531104  62.1462141  29.1637939  46.1822134
  63.0093603  28.8074744  46.3925459  61.5727552  28.8251834  46.8697538
  69.0045575  48.1900176  38.1707770  69.2553613  49.0747186  38.4365345
  69.5405123  48.0104778  37.3982861  69.6354617  52.3391168  31.8625246
  70.4729839  52.7488176  31.6458954  69.8132884  51.3990610  31.8325440
  69.6580788  49.6781883  32.5335979  69.4605187  49.0851244  31.8087046
  69.1027452  49.3734093  33.2511918  66.2180619  51.3632078  34.7003725
  66.9051659  51.0493808  34.1124740  66.0628747  52.2673443  34.4270976
  65.7948595  49.4432672  36.9721192  65.8332694  48.9096262  37.7658310
  65.2888888  48.9167877  36.3532169  69.4257172  48.1696774  30.0475123
  69.7210614  47.2607452  29.9942177  68.5245208  48.1484513  29.7256126
  69.6130991  50.8394670  39.1899957  69.0684459  51.6154478  39.3220231
  70.4910341  51.1865474  39.0319078  70.3997013  49.9664566  42.0830114
  69.6578749  50.1147201  42.6694744  70.0789757  50.2272831  41.2196863
  69.0462231  55.7716321  35.0729442  68.2094140  55.3438495  34.8913443
  69.0185877  55.9648764  36.0100233  68.3611728  48.8325669  34.8578374
  68.0414512  47.9790977  34.5652748  67.8145156  49.0474247  35.6136342
  68.2299988  52.4528581  36.8271496  67.5363459  52.0382533  36.3141450
  68.9772979  52.4949117  36.2304915  70.1436730  52.3846834  34.7037511
  70.1207419  52.4834522  33.7519394  70.4537367  53.2311985  35.0254677
  68.6458405  47.3462239  42.0847120  69.2917268  46.8361193  42.5734345
  68.4375556  48.0830921  42.6590545  54.2650426   7.4823210  18.5177517
  54.1874455   8.4331035  18.5965998  53.6612069   7.1369082  19.1752444
  52.9244392   4.9924731  25.8944078  53.4751817   4.8641794  25.1221072
  52.0855868   5.2919620  25.5438970  57.3376170   7.0819241  15.8885859
  57.5127926   6.6107284  16.7031482  56.6508958   7.7085007  16.1167120
  51.9037255  10.2308604  22.6625719  52.1433854  10.8627128  23.3404738
  51.0606452   9.8796644  22.9491079  56.4165117   6.0387726  25.0667223
  56.3435289   6.8442698  25.5786528  55.9742510   6.2379692  24.2415245
  52.3782088   6.2556606  19.9924498  51.7092463   6.7402734  19.5088538
  52.2394957   6.5025827  20.9067876  56.5187356   8.2900350  26.5907156
  57.0705664   8.4531971  27.3556241  56.8593550   8.8804788  25.9187181
  56.6873780   8.0096741  20.8361187  56.2478770   7.5173120  21.5294044
  57.4381897   7.4669709  20.5953262  49.1666119   4.2008282  20.8385815
  49.9924138   3.9012054  20.4584459  48.8160171   3.4315904  21.2875604
  49.4786829   6.3320896  22.5599630  49.3441297   5.5721297  21.9937628
  49.0618892   7.0561796  22.0928418  52.6355955   7.2290213  22.7718072
  52.5188339   8.1735646  22.6696763  51.8148402   6.9263775  23.1603871
  53.6610469   7.8818475  25.9874001  54.5637716   7.9142085  26.3040496
  53.4347839   6.9518926  26.0020336  55.4164071   6.6349462  22.6484079
  54.4659702   6.6351323  22.5348452  55.7196558   5.8882196  22.1320114
  67.9606471  12.4237428  23.6491366  67.6224983  12.3078493  22.7611901
  68.8296239  12.0228593  23.6292373  63.8193287  14.2772905  19.6388257
  63.2558152  14.1862841  18.8704545  63.7045682  13.4572809  20.1190750
  68.4426254  13.5772280  29.6077572  68.4314895  13.1825078  28.7358076
  68.6046894  12.8438352  30.2011343  61.3657719  15.7724096  22.4772478
  62.1579011  15.4314921  22.0618777  61.6054369  15.8819071  23.3974631
  63.3248473  15.0333009  15.3489857  64.0979349  14.4861996  15.2102732
  63.6773872  15.8977259  15.5604318  65.1633515  16.3609392  28.5556756
  64.8723381  17.2655022  28.4403422  65.7990500  16.4025919  29.2700825
  66.0889722  13.7386240  25.1458116  66.6853294  13.5142263  24.4315078
  66.1464694  12.9970986  25.7483563  67.7242580  12.5563929  18.8879371
  67.3600787  12.0294550  19.5992292  68.5809696  12.1662398  18.7145856
  70.1223400  16.0470807  25.5506550  69.8224123  16.9495846  25.4422357
  69.7774460  15.7802990  26.4027702  63.5735882  12.4984604  21.5843254
  62.6486378  12.3660818  21.7920946  63.8220295  13.2778823  22.0813196
  60.9344693  12.1417878  22.4187043  61.0637074  12.3952356  23.3326455
  60.2542144  12.7345586  22.0991698  65.1044180  22.8115127  18.5177517
  65.0268210  23.7622953  18.5965998  64.5005824  22.4661000  19.1752444
  67.5961410   9.9842993  31.1738884  66.8194744  10.5436913  31.1641749
  68.2351973  10.4699776  31.6953754  65.8507782  12.7928446  30.7356851
  66.5922467  13.3313490  30.4591675  65.1444768  13.4194735  30.8928403
  67.2019898  15.2333185  20.3531387  67.6658244  15.5120888  19.5636009
  66.9376697  14.3316630  20.1704477  64.0943980  14.7804667  23.2911150
  64.6645337  15.2091935  22.6528634  64.6852091  14.4987252  23.9895336
  66.1388785  11.3556338  17.1620952  66.8412828  11.8077381  17.6294878
  65.8069413  10.7140157  17.7900845  64.5869146   9.9468094  31.5372161
  63.9567807  10.6284375  31.7707558  64.4805234   9.8351176  30.5925299
  59.8814118   9.6139890  22.4638085  59.0913172   9.8697419  21.9878196
  60.3725366  10.4288228  22.5690126  61.8328864   9.9784470  19.4221562
  61.0360027  10.0903164  19.9405058  61.6054456  10.3171122  18.5562453
  67.6634531  16.5029173  27.3704077  67.7278964  16.9649580  28.2062249
  66.9545455  15.8726538  27.4986387  58.1651821   9.8670381  24.8953076
  58.4159860  10.7517391  25.1610652  58.7011370   9.6874982  24.1228168
  67.3782549  18.1697280  17.2383057  67.2428224  19.0148816  17.6667905
  67.9192362  18.3716558  16.4748991  60.8311947  15.6872718  17.8110982
  61.3436467  16.4815969  17.9616547  61.4834659  14.9899009  17.7444584
  62.6406831  18.8038475  19.8933735  62.8173460  19.7256439  19.7054719
  63.4363665  18.4896894  20.3228115  61.9259188  10.8503107  29.7695898
  61.8112703   9.9488364  30.0702997  61.0703706  11.0966803  29.4180715
  69.0051026  18.7920847  31.3683399  68.5614880  18.0057226  31.0504304
  69.6668239  18.9799997  30.7027290  63.7638147  20.3216649  25.8944078
  64.3145572  20.1933712  25.1221072  62.9249623  20.6211538  25.5438970
  67.5605318  16.5867776  30.2388309  68.0933655  15.8256065  30.0087617
  67.0319399  16.2941428  30.9812463  58.7960863  14.0161373  18.5870553
  59.6336085  14.4258381  18.3704260  58.9739131  13.0760815  18.5570747
  68.9258030  15.7153769  17.7507121  68.3979392  14.9806528  17.4380358
  68.4245533  16.4928445  17.5047089  58.8187034  11.3552088  19.2581286
  58.6211434  10.7621449  18.5332353  58.2633698  11.0504298  19.9757225
  66.7983758  11.2475195  21.3775879  66.8532368  10.2949031  21.3018356
  65.9874960  11.4034634  21.8617178  64.7376118   9.8652254  19.1366258
  63.9243984  10.1646425  19.5431450  65.2335112   9.4707943  19.8540740
  66.8884696  19.8610011  21.0700523  66.8460875  20.0870858  20.1409055
  67.8047395  19.6273386  21.2186324  65.0050497  16.7373040  20.8662486
  65.7991095  16.2423360  20.6645060  64.2942189  16.2090903  20.5030191
  69.8245341  19.1191136  25.2174853  69.8782363  19.6882072  25.9852569
  68.9560123  19.2893021  24.8528890  61.3133260  10.8816122  16.9422238
  60.3830848  10.8200577  17.1592200  61.4090732  10.3592075  16.1458879
  62.7043735   8.8208692  26.6999304  63.3766788   8.6126054  26.0511953
  61.8773521   8.6230778  26.2604537  68.7833441  13.2851398  26.7761785
  69.7125501  13.4362557  26.6030752  68.3624471  13.3735419  25.9210431
  67.5821773  17.3102062  24.5460323  67.4432858  16.9420847  25.4186261
  66.7936369  17.8249702  24.3744280  68.1769925  22.4111159  15.8885859
  68.3521680  21.9399202  16.7031482  67.4902713  23.0376925  16.1167120
  69.1326988  16.6883665  21.9349160  68.7976820  16.6484435  22.8306810
  68.6330933  16.0228381  21.4619571  63.1071232  12.0951295  27.4601742
  62.9691030  11.3631534  28.0613281  64.0176155  12.0060195  27.1785929
  65.7353532  11.8071254  26.9485421  66.4453151  11.1664446  26.9072040
  65.6922841  12.0584149  27.8711602  64.4482466   8.7936472  28.7681061
  63.9119823   8.3427211  29.4202657  63.8599175   8.9282381  28.0251525
  62.7431010  25.5600521  22.6625719  62.9827608  26.1919046  23.3404738
  61.9000206  25.2088562  22.9491079  55.3786866  13.0402283  21.4249031
  56.0657905  12.7264013  20.8370047  55.2234994  13.9443648  21.1516283
  60.1821588   7.9292480  25.8534055  60.0979776   7.3218149  25.1184465
  59.3604294   8.4201498  25.8543551  67.2558872  21.3679644  25.0667223
  67.1829043  22.1734615  25.5786528  66.8136265  21.5671610  24.2415245
  67.0448651  20.6051414  18.5770045  66.2616173  21.1473094  18.6708269
  67.7441397  21.1225394  18.9764286  69.7157555  21.2666478  27.2225382
  70.4285528  21.9013943  27.1501283  69.2247584  21.3630344  26.4065384
  64.7669469  19.0160921  28.0430953  65.4678928  19.6497404  28.1960347
  64.2964584  19.3575653  27.2826592  69.5277929  21.6065222  19.9711673
  69.7100323  20.7886878  20.4339426  70.3510915  21.8232914  19.5336563
  69.8620094  20.5333407  17.2326722  70.3907861  20.0225862  16.6196884
  70.1248314  20.2175937  18.0972255  68.6158328  12.3125340  32.3549540
  67.9398965  12.2119469  33.0251915  69.4385962  12.1564554  32.8185537
  60.3637187  18.5497276  24.9762055  60.9490624  17.8040964  25.1089960
  60.1662025  18.8601233  25.8598719  63.2175842  21.5848524  19.9924498
  62.5486217  22.0694651  19.5088538  63.0788712  21.8317744  20.9067876
  54.9554842  11.1202877  23.6966499  54.9938941  10.5866467  24.4903617
  54.4495134  10.5938082  23.0777476  67.3581111  23.6192267  26.5907156
  67.9099419  23.7823889  27.3556241  67.6987304  24.2096705  25.9187181
  58.5863419   9.8466979  16.7720430  58.8816860   8.9377657  16.7187484
  57.6851455   9.8254718  16.4501432  62.1157666   7.9222975  22.7547979
  61.3944252   8.5358943  22.6155452  62.9050922   8.4580740  22.6764625
  69.5630840  19.1635979  21.4054741  69.4155802  18.2352687  21.5862311
  70.3884333  19.1856070  20.9211816  64.2991575   9.9759530  22.9757602
  64.1536156  10.2899833  23.8681884  63.8216779  10.5944430  22.4228501
  58.7737238  12.5164874  25.9145264  58.2290706  13.2924682  26.0465538
  59.6516587  12.8635679  25.7564385  59.5603259  11.6434771  28.8075421
  58.8184995  11.7917406  29.3940051  59.2396004  11.9043036  27.9442170
  67.5046922  21.1850749  28.6055811  67.8134048  20.9399896  29.4778510
  68.3022404  21.3897387  28.1174681  67.5267534  23.3388659  20.8361187
  67.0872524  22.8465037  21.5294044  68.2775651  22.7961626  20.5953262
  60.0059873  19.5300199  20.8385815  60.8317893  19.2303971  20.4584459
  59.6553925  18.7607822  21.2875604  64.9741406  18.8826668  22.9083489
  64.3521416  18.2197373  22.6085717  65.6446273  18.9087800  22.2257137
  58.2068478  17.4486526  21.7974749  57.3700386  17.0208700  21.6158750
  58.1792124  17.6418969  22.7345540  64.5354913  17.4330591  16.3841949
  64.6843034  18.1166055  15.7308622  65.3421357  17.4135681  16.8991405
  62.2907546  13.4595769  17.3903018  62.0453588  12.5558099  17.5883228
  62.4603461  13.4612919  16.4482496  61.5603194   9.1924126  14.8889180
  60.8672439   9.2668481  14.2329216  61.3154946   8.4284470  15.4110697
  68.0350319  19.9278721  13.8553697  67.4624286  20.5468909  13.4024169
  68.6083112  20.4778083  14.3893619  68.3035810  15.3157280  32.6570406
  69.2238819  15.4935879  32.8510453  68.2685393  14.3713326  32.5050105
  57.5217975  10.5095874  21.5823681  57.2020759   9.6561182  21.2898055
  56.9751403  10.7244452  22.3381648  61.2997882  13.2258315  25.2993187
  61.5183892  14.1575423  25.3181221  61.7123656  12.8666289  26.0847991
  57.3906235  14.1298786  23.5516802  56.6969706  13.7152738  23.0386757
  58.1379226  14.1719322  22.9550221  66.0357018  12.2288660  33.5060998
  65.5524099  13.0289020  33.7124887  66.1217957  12.2396604  32.5528442
  59.3042977  14.0617039  21.4282817  59.2813665  14.1604727  20.4764700
  59.6143614  14.9082190  21.7499983  61.9630355  16.1193194  25.5429432
  62.9173609  16.0877137  25.4759363  61.7642879  15.6583818  26.3579658
  62.5529737  14.6894310  28.1100229  63.3722626  15.1838389  28.1335067
  62.8266545  13.7726279  28.0817797  60.3180584  21.6612814  22.5599630
  60.1835052  20.9013215  21.9937628  59.9012646  22.3853714  22.0928418
  63.4749710  22.5582131  22.7718072  63.3582094  23.5027563  22.6696763
  62.6542156  22.2555692  23.1603871  57.8064651   9.0232444  28.8092426
  58.4523515   8.5131398  29.2979652  57.5981803   9.7601126  29.3835852
  64.5004224  23.2110393  25.9874001  65.4031471  23.2434003  26.3040496
  64.2741594  22.2810844  26.0020336  66.2557826  21.9641379  22.6484079
  65.3053457  21.9643241  22.5348452  66.5590312  21.2174114  22.1320114
  69.0045576  25.1962299  24.8953076  69.2553614  26.0809309  25.1610652
  69.5405124  25.0166900  24.1228168  69.6354618  29.3453290  18.5870553
  70.4729840  29.7550299  18.3704260  69.8132885  28.4052733  18.5570747
  69.6580789  26.6844006  19.2581286  69.4605189  26.0913366  18.5332353
  69.1027453  26.3796216  19.9757225  66.2180620  28.3694201  21.4249031
  66.9051660  28.0555931  20.8370047  66.0628749  29.2735566  21.1516283
  65.7948596  26.4494794  23.6966499  65.8332696  25.9158385  24.4903617
  65.2888889  25.9230000  23.0777476  69.4257174  25.1758897  16.7720430
  69.7210615  24.2669575  16.7187484  68.5245209  25.1546636  16.4501432
  69.6130992  27.8456792  25.9145264  69.0684460  28.6216600  26.0465538
  70.4910342  28.1927597  25.7564385  70.3997014  26.9726688  28.8075421
  69.6578750  27.1209324  29.3940051  70.0789758  27.2334954  27.9442170
  69.0462233  32.7778444  21.7974749  68.2094141  32.3500618  21.6158750
  69.0185878  32.9710887  22.7345540  68.3611729  25.8387792  21.5823681
  68.0414514  24.9853100  21.2898055  67.8145157  26.0536370  22.3381648
  68.2299989  29.4590703  23.5516802  67.5363461  29.0444656  23.0386757
  68.9772980  29.5011240  22.9550221  70.1436732  29.3908957  21.4282817
  70.1207420  29.4896644  20.4764700  70.4537368  30.2374108  21.7499983
  68.6458406  24.3524362  28.8092426  69.2917270  23.8423316  29.2979652
  68.4375557  25.0893044  29.3835852   6.1154234  35.4647879  63.5393919
   6.7532644  35.3454627  62.8357259   5.9975077  36.4128723  63.5981871
   2.9243940  35.4175307  63.4755443   2.5862452  35.3016372  62.5875978
   3.7933709  35.0166472  63.4556450   4.3630315  40.9381751  54.7766799
   3.7118295  41.5235832  54.3900813   5.1574678  41.4687946  54.8361837
   5.6695503  33.1899333  60.6147127   6.4558592  32.7718756  60.2637544
   5.9334207  34.0945425  60.7828775   5.8405580  38.6272183  55.3135784
   5.2051413  38.7006810  56.0256688   5.5102986  39.2165782  54.6354863
  11.0703930  33.1274566  61.5180105  11.8029102  32.5573783  61.7517935
  10.3143286  32.7396167  61.9586611   2.6880050  35.5501808  58.7143448
   2.3238257  35.0232429  59.4256369   3.5447165  35.1600277  58.5409933
   2.3285537  30.5791707  53.7104796   2.4959939  31.4471944  54.0775267
   2.1382706  30.7418989  52.7866085   8.4858013  31.5591227  63.0568064
   7.5774891  31.4906635  62.7626825   8.4345609  32.0363171  63.8849889
   2.3074757  33.0349365  54.6951463   2.1874383  33.4806416  55.5336943
   1.6127346  33.3834683  54.1365001   8.0059824  33.5070838  55.5231797
   8.9177680  33.7398225  55.3479495   7.4969471  34.0907882  54.9606876
   6.6129406  38.4896657  62.9145379   5.9838268  38.6542371  62.2121446
   6.2255068  38.9038266  63.6856343  10.4918638  39.4251094  60.2689742
   9.8069676  39.8049996  59.7186776  10.5762487  40.0346421  61.0021690
   7.7469569  37.0711053  66.8685086   7.9586465  37.7142813  66.1919467
   7.6999318  36.2373370  66.4007016   2.1657368  38.2271065  60.1795464
   2.6295713  38.5058768  59.3900086   1.9014166  37.3254509  59.9968554
   1.1026254  34.3494217  56.9885029   1.8050297  34.8015261  57.4558955
   0.7706882  33.7078036  57.6164922   8.8615397  39.9483009  65.0407443
   9.6832841  39.5463196  64.7590125   8.8577800  39.8451243  65.9923559
  16.9521390  36.2921757  61.3892415  16.1985099  35.7229155  61.2336419
  17.0868932  36.2584422  62.3363049   2.3420018  41.1635160  57.0647134
   2.2065693  42.0086695  57.4931982   2.8829831  41.3654437  56.3013068
   5.6562765  34.6774333  54.1018463   5.1409388  35.4478937  54.3406850
   5.3840073  34.0039469  54.7251524   3.2409876  29.5224033  59.1603701
   2.3851472  29.1330884  58.9809340   3.6536827  29.6015994  58.3003486
  10.6297039  37.4306687  56.0371636   9.8526482  37.0917847  55.5926798
  11.3088520  37.4359310  55.3626601   5.4449068  32.5501425  55.9278244
   5.1399203  32.8647574  56.7788387   6.3979510  32.6282845  55.9705577
   3.8895500  38.7091648  57.5771198   3.3616861  37.9744408  57.2644435
   3.3883002  39.4866324  57.3311166   8.8688346  36.9040669  62.6938244
   8.2112020  37.5939930  62.7818373   9.6728745  37.2937100  63.0372230
   7.6793805  35.2585041  60.7442186   8.1925686  35.8915033  61.2463896
   8.3295028  34.6586237  60.3785546   2.0348100  36.5271858  50.5806171
   1.1275162  36.2961112  50.7797320   2.5319132  35.7309478  50.7680152
   4.9416179  45.2369365  53.5002857   4.2677878  45.5401062  54.1087815
   5.3282001  46.0398446  53.1508314   4.1574635  32.7334497  62.9900526
   3.2397197  32.9549444  62.8322214   4.5734779  32.8080807  62.1312234
   4.9409683  34.1325912  58.1203207   5.6881502  34.6447310  57.8110329
   5.2101273  33.8109965  58.9807600   3.2136333  36.6284453  55.1030161
   2.3047553  36.3443486  55.2002631   3.2431417  37.0483532  54.2433468
   8.4455601  40.2391043  58.8721328   7.9917928  39.3981953  58.9286519
   7.8149567  40.8752441  59.2096109   7.3888520  31.1683029  60.1021996
   6.6511277  30.6560415  60.4332238   7.6415294  30.7283410  59.2905273
   6.8888540  42.0767539  59.8071147   7.1811514  42.6372596  59.0883512
   7.3987161  42.3696100  60.5624306   1.7621227  34.2413074  61.2039956
   1.8169837  33.2886910  61.1282433   0.9512429  34.3972513  61.6881255
   2.9112421  38.1693197  52.4418239   2.4731851  37.4529056  51.9823877
   3.6522862  38.3969312  51.8803331   1.8522165  42.8547890  60.8964600
   1.8098344  43.0808737  59.9673132   2.7684864  42.6211265  61.0450401
  11.0285536  36.4450394  58.4994558  10.8903435  36.6351990  57.5715747
  10.6721755  37.2069777  58.9562609  11.0554916  38.5126921  63.5105830
  11.4891422  38.4202210  64.3588884  11.7686496  38.4884421  62.8725846
  11.9170465  38.5550622  66.0438715  12.1106355  39.4596432  66.2897990
  11.8171083  38.0958041  66.8777300   3.1407394  45.4049038  55.7149936
   3.3159150  44.9337081  56.5295559   2.4540182  46.0314804  55.9431197
   4.0964457  39.6821544  61.7613237   3.7614290  39.6422314  62.6570887
   3.5968403  39.0166260  61.2883648   7.0323649  37.0277578  52.0350297
   6.4152819  36.3024407  51.9383350   6.5640137  37.7886939  51.6917371
   8.6895188  39.7016071  67.9270057   7.8021966  39.3641993  68.0496456
   9.2593739  38.9699102  68.1638822   2.0086121  43.5989293  58.4034122
   1.2253643  44.1410973  58.4972346   2.7078866  44.1163273  58.8028363
   5.3182771  29.4083923  61.0468327   5.8151470  28.6553885  60.7269397
   4.5469752  29.4448239  60.4811537  13.1712528  35.1124288  62.6886619
  13.1602404  35.9949004  62.3180552  12.3029908  34.7595839  62.4941156
   6.4012551  38.1655610  58.6206751   5.4668830  38.2857072  58.4511455
   6.5789220  37.2628077  58.3566760   1.9017740  31.5501306  60.7740012
   1.5315527  30.9972346  61.4620917   2.3976832  30.9459439  60.2215012
   9.7885103  34.0072929  59.1556785  10.2545555  34.8400921  59.0817087
  10.2392603  33.5417911  59.8602043   7.8561334  40.3516750  56.1542937
   8.1321178  40.2373345  57.0636811   6.9865833  39.9534235  56.1155110
   7.5308224  34.5643408  65.6947580   6.8779674  34.8119315  65.0400033
   7.9088604  33.7507546  65.3610057   4.4915398  44.6003101  59.7975750
   4.6737792  43.7824757  60.2603503   5.3148384  44.8170793  59.3600640
   4.8257563  43.5271286  57.0590799   5.3545330  43.0163741  56.4460961
   5.0885783  43.2113817  57.9236332   7.5221876  42.3621142  65.0314465
   6.5752211  42.2426493  64.9592792   7.8704649  41.4743640  65.1140727
   4.5268309  42.1573858  61.2318818   4.3793271  41.2290566  61.4126388
   5.3521802  42.1793949  60.7475893   8.1302431  42.9802417  62.3183690
   9.0548978  42.7745278  62.1808142   7.9617734  42.7318818  63.2273032
   4.5229823  30.0111696  56.2250935   4.7393438  30.8936334  55.9239763
   4.0423890  29.6197909  55.4956577   7.9197747  43.4988085  57.6745782
   8.0934625  42.9334507  56.9219634   8.4126638  44.2988979  57.4925272
  13.7737138  36.2624508  59.2936082  14.2168284  35.5131833  58.8955205
  12.8963648  36.2534644  58.9109814   8.9072919  42.8154849  54.7742680
   9.6023824  43.4361542  54.9929995   9.2496070  41.9650200  55.0495058
  10.8064343  40.2654555  56.3030011  11.3315667  40.6041827  55.5779331
  10.7186695  39.3301570  56.1193146  12.1174321  40.1676866  69.1655959
  11.8259129  40.5306847  70.0019420  11.5046452  39.4543874  68.9869291
  13.3170003  37.7329746  61.6858529  14.1516894  38.1719550  61.8496090
  13.4529132  37.2568399  60.8666775  10.3661509  35.2909481  67.6336017
  10.8415630  35.4837127  66.8254868   9.4427074  35.3468666  67.3879401
   2.9987788  42.9216601  53.6817774   2.4261755  43.5406788  53.2288246
   3.5720582  43.4715962  54.2157696   6.2185048  43.2053751  54.8126356
   7.1515721  43.1399312  55.0159232   6.1308261  44.0410018  54.3540889
   8.8473064  42.5219621  51.7730304   8.7686696  42.1879485  52.6666061
   9.6682731  43.0141389  51.7721776  11.5451256  35.3881360  64.9806622
  11.5127576  34.4497361  65.1666306  12.1551879  35.4665397  64.2472447
   3.3834586  34.2577413  51.0233826   4.3293691  34.1283622  51.0922244
   3.0048831  33.5192075  51.5003254  11.6945744  32.1792404  65.0264905
  11.1784793  31.3950861  64.8394834  12.5785693  31.8511120  65.1911425
   9.3556471  25.9233419  60.9860718   9.1581292  25.6148508  61.8704050
   9.9656177  26.6495058  61.1158648  17.3627805  36.4497367  64.1212659
  18.0931194  36.1882655  64.6820362  16.7534751  35.7126089  64.1614727
  15.4443103  34.5905230  64.7187110  14.7176266  34.4561195  64.1103602
  15.0290389  34.8982058  65.5243828   1.5677504  32.1827390  50.9588711
   0.6608959  31.8860503  51.0351425   1.8453485  31.8857208  50.0922998
   3.1839569  26.7264280  57.1132953   2.3740298  26.3811364  57.4888199
   3.8723986  26.4171823  57.7020564   5.1130118  25.8042326  58.7357249
   5.6661156  26.2237780  59.3947273   5.3500204  24.8778074  58.7780205
   8.4908925  27.9142851  58.2435914   7.9107594  28.5727656  57.8613966
   8.2244857  27.0920196  57.8323331   6.9412491  27.3147909  60.4457234
   7.4412269  27.4264444  59.6371553   7.5848099  27.0108962  61.0858042
   7.2733803  30.0742942  57.2992262   6.3859658  30.3592592  57.0812457
   7.6887792  29.9136705  56.4519539  10.6248339  30.0989463  61.0146601
  11.4008729  30.5885915  61.2871218   9.8996473  30.5247517  61.4718471
  13.0620897  30.8117082  62.0720542  13.6565388  30.5712818  61.3613850
  13.1347481  30.0924213  62.6994078   6.4177016  39.8387617  51.3940282
   7.1212866  40.0437619  52.0097938   5.6939665  40.4064378  51.6589365
   7.2474826  35.5897478  57.5142552   7.1910028  36.0466029  56.6750184
   7.8003169  34.8288162  57.3365395  11.0579632  31.3787210  58.3392672
  10.8016567  30.9783845  59.1700879  10.4332500  32.0931004  58.2142811
  15.3691970  34.1183283  60.8463963  14.8091528  34.1876472  61.6195525
  14.7635474  33.9424268  60.1263459   8.3263714  40.2770146  53.4438742
   9.1609318  39.8451344  53.2616217   8.1648057  40.1052159  54.3715636
   7.9809606  36.7802259  54.8095081   7.9258410  36.6146530  53.8683525
   7.3555661  37.4878292  54.9657271   1.2905731  26.2810368  54.3880400
   1.2784401  27.2252208  54.5448671   2.1829153  26.0980513  54.0939861
  16.9547989  50.7939797  63.5393919  17.5926399  50.6746544  62.8357259
  16.8368832  51.7420641  63.5981871  13.7637695  50.7467225  63.4755443
  13.4256206  50.6308290  62.5875978  14.6327463  50.3458390  63.4556450
   9.6224511  52.6002701  59.4652334   9.0589376  52.5092638  58.6968622
   9.5076906  51.7802606  59.9454827  15.2024069  56.2673669  54.7766799
  14.5512049  56.8527749  54.3900813  15.9968432  56.7979864  54.8361837
   9.1279697  53.3562806  55.1753934   9.9010573  52.8091793  55.0366809
   9.4805095  54.2207056  55.3868395  11.4645974  49.5155472  52.8072384
  11.7171495  48.9936994  52.0455847  10.5270533  49.3521618  52.9099067
  16.5089257  48.5191251  60.6147127  17.2952346  48.1010674  60.2637544
  16.7727961  49.4237343  60.7828775  16.6799335  53.9564101  55.3135784
  16.0445167  54.0298728  56.0256688  16.3496741  54.5457700  54.6354863
  21.9097684  48.4566484  61.5180105  22.6422856  47.8865701  61.7517935
  21.1537040  48.0688084  61.9586611  11.1842263  51.4183578  55.0096758
  11.0678521  50.7428482  55.6777843  11.2944523  50.9315952  54.1928912
  13.5273804  50.8793725  58.7143448  13.1632011  50.3524346  59.4256369
  14.3840920  50.4892194  58.5409933  19.4323105  42.1688058  65.9774714
  19.1006429  43.0383469  65.7535929  18.8368718  41.8524342  66.6568744
  13.1679291  45.9083625  53.7104796  13.3353693  46.7763861  54.0775267
  12.9776460  46.0710907  52.7866085   9.3767106  50.8214401  61.4107331
   8.4517602  50.6890615  61.6185023   9.6251519  51.6008620  61.9077273
  19.3251768  46.8883144  63.0568064  18.4168645  46.8198553  62.7626825
  19.2739364  47.3655089  63.8849889  13.1468512  48.3641283  54.6951463
  13.0268137  48.8098333  55.5336943  12.4521100  48.7126600  54.1365001
  21.1913414  45.0899583  64.8345938  20.5487795  45.3832116  64.1885732
  20.6868343  44.9752503  65.6399135  18.8453578  48.8362756  55.5231797
  19.7571434  49.0690143  55.3479495  18.3363225  49.4199800  54.9606876
  13.4825416  48.1959990  66.5326647  14.3286611  48.6199404  66.6761296
  13.4224053  47.5393615  67.2265210  17.4523160  53.8188574  62.9145379
  16.8232023  53.9834288  62.2121446  17.0648822  54.2330184  63.6856343
  21.3312392  54.7543012  60.2689742  20.6463430  55.1341913  59.7186776
  21.4156242  55.3638339  61.0021690  16.6324861  45.8564359  68.1907820
  16.3885793  46.6106419  67.6542096  16.9084792  46.2349706  69.0255067
  18.5863324  52.4002971  66.8685086  18.7980219  53.0434731  66.1919467
  18.5393072  51.5665288  66.4007016  16.1889553  45.0120792  63.7721658
  15.3274032  45.3102045  64.0638396  16.2151987  45.2291191  62.8402691
  13.0051122  53.5562982  60.1795464  13.4689468  53.8350685  59.3900086
  12.7407920  52.6546427  59.9968554  11.9420008  49.6786135  56.9885029
  12.6444052  50.1307178  57.4558955  11.6100637  49.0369954  57.6164922
  19.7009152  55.2774927  65.0407443  20.5226596  54.8755114  64.7590125
  19.6971555  55.1743161  65.9923559   7.6360088  48.3014267  59.2485639
   6.8391251  48.4132961  59.7669135   7.4085680  48.6400919  58.3826530
  27.7915145  51.6213675  61.3892415  27.0378853  51.0521073  61.2336419
  27.9262686  51.5876339  62.3363049  13.1813773  56.4927077  57.0647134
  13.0459448  57.3378613  57.4931982  13.7223585  56.6946355  56.3013068
   6.6343170  54.0102515  57.6375059   7.1467691  54.8045766  57.7880624
   7.2865883  53.3128806  57.5708661  16.5306236  40.0157639  65.5946027
  16.1870506  40.9059281  65.5185138  16.8985199  39.8259297  64.7315612
  16.4956519  50.0066250  54.1018463  15.9803143  50.7770855  54.3406850
  16.2233828  49.3331386  54.7251524  14.0803630  44.8515951  59.1603701
  13.2245227  44.4622801  58.9809340  14.4930582  44.9307912  58.3003486
  15.6102777  42.3862294  63.5595261  15.1067572  42.3492429  62.7463066
  15.9033384  43.2955037  63.6191917  11.8545663  42.4701024  62.5661442
  12.7198660  42.2743833  62.2067332  11.9223172  42.2411376  63.4930799
  21.4690793  52.7598605  56.0371636  20.6920236  52.4209764  55.5926798
  22.1482274  52.7651228  55.3626601  16.2842822  47.8793342  55.9278244
  15.9792958  48.1939492  56.7788387  17.2373264  47.9574762  55.9705577
  14.7289254  54.0383566  57.5771198  14.2010616  53.3036325  57.2644435
  14.2276757  54.8158242  57.3311166  19.7082100  52.2332586  62.6938244
  19.0505775  52.9231848  62.7818373  20.5122499  52.6229018  63.0372230
   9.4607982  44.7003232  59.9377809  10.0351734  44.4778413  59.2051002
  10.0478964  44.7691926  60.6906411  18.5187559  50.5876959  60.7442186
  19.0319441  51.2206951  61.2463896  19.1688783  49.9878154  60.3785546
   9.7877569  46.7307693  53.9573695   8.9514881  47.0682380  54.2782969
   9.6482339  46.5956673  53.0200832  11.7630650  41.5744481  58.6652879
  11.1095062  41.2593498  58.0409493  11.7211124  40.9520221  59.3912702
  12.8741854  51.8563776  50.5806171  11.9668916  51.6253029  50.7797320
  13.3712886  51.0601395  50.7680152  15.7809933  60.5661283  53.5002857
  15.1071632  60.8692980  54.1087815  16.1675755  61.3690363  53.1508314
  14.9968390  48.0626414  62.9900526  14.0790951  48.2841361  62.8322214
  15.4128534  48.1372725  62.1312234  15.7803438  49.4617830  58.1203207
  16.5275257  49.9739227  57.8110329  16.0495027  49.1401883  58.9807600
  14.0530088  51.9576371  55.1030161  13.1441307  51.6735404  55.2002631
  14.0825172  52.3775449  54.2433468  19.2849355  55.5682960  58.8721328
  18.8311682  54.7273870  58.9286519  18.6543322  56.2044359  59.2096109
  18.2282275  46.4974946  60.1021996  17.4905032  45.9852333  60.4332238
  18.4809048  46.0575328  59.2905273  17.7282294  57.4059457  59.8071147
  18.0205269  57.9664514  59.0883512  18.2380915  57.6988018  60.5624306
  18.3293902  39.2751198  60.6963765  18.6352779  38.4148562  60.4089680
  19.0546507  39.8668819  60.4962759  12.6014982  49.5704991  61.2039956
  12.6563592  48.6178828  61.1282433  11.7906184  49.7264431  61.6881255
  13.7506176  53.4985115  52.4418239  13.3125606  52.7820973  51.9823877
  14.4916616  53.7261229  51.8803331  10.5407342  48.1882051  58.9630335
   9.7275207  48.4876222  59.3695527  11.0366336  47.7937740  59.6804817
  12.6915920  58.1839808  60.8964600  12.6492098  58.4100654  59.9673132
  13.6078619  57.9503183  61.0450401  16.1381553  48.6523876  67.7945229
  16.4930941  48.8795349  68.6539695  16.7853685  48.9842252  67.1722484
  21.8679290  51.7742312  58.4994558  21.7297189  51.9643908  57.5715747
  21.5115509  52.5361694  58.9562609  10.0321417  45.7600407  64.5791570
  10.6720796  45.6189166  63.8814533   9.1998947  45.4734920  64.2030172
  21.8948670  53.8418839  63.5105830  22.3285177  53.7494128  64.3588884
  22.6080251  53.8176339  62.8725846  10.8081720  55.0602837  60.6926563
  11.6022319  54.5653157  60.4909137  10.0973413  54.5320700  60.3294268
   7.1164484  49.2045919  56.7686315   6.1862072  49.1430374  56.9856277
   7.2121956  48.6821872  55.9722956   7.0350033  45.7300732  59.3564557
   7.2956850  46.6446065  59.2473717   7.8567205  45.2625174  59.5061170
  22.7564220  53.8842539  66.0438715  22.9500110  54.7888350  66.2897990
  22.6564838  53.4249958  66.8777300  14.4100530  43.7700430  68.5429042
  13.7628445  44.4690379  68.4493519  15.1801546  44.2036574  68.9105290
  14.5864665  51.6081195  66.6025862  15.5156725  51.7592354  66.4294829
  14.1655695  51.6965215  65.7474508  13.9801148  60.7340956  55.7149936
  14.1552904  60.2628999  56.5295559  13.2933936  61.3606722  55.9431197
  14.9358212  55.0113462  61.7613237  14.6008044  54.9714232  62.6570887
  14.4362157  54.3458178  61.2883648  17.8717403  52.3569496  52.0350297
  17.2546574  51.6316324  51.9383350  17.4033892  53.1178856  51.6917371
   9.6615949  46.5754920  51.1571601   8.7845415  46.4543721  50.7933848
  10.1373702  45.7840999  50.9050490  19.5288942  55.0307988  67.9270057
  18.6415721  54.6933910  68.0496456  20.0987493  54.2991020  68.1638822
  12.8479875  58.9281211  58.4034122  12.0647397  59.4702891  58.4972346
  13.5472620  59.4455190  58.8028363  16.1576525  44.7375840  61.0468327
  16.6545225  43.9845803  60.7269397  15.3863507  44.7740157  60.4811537
  24.0106283  50.4416206  62.6886619  23.9996159  51.3240921  62.3180552
  23.1423662  50.0887757  62.4941156  17.2406306  53.4947527  58.6206751
  16.3062585  53.6148990  58.4511455  17.4182974  52.5919994  58.3566760
  12.7411494  46.8793223  60.7740012  12.3709282  46.3264264  61.4620917
  13.2370587  46.2751357  60.2215012  20.6278857  49.3364847  59.1556785
  21.0939310  50.1692838  59.0817087  21.0786358  48.8709828  59.8602043
  18.6955088  55.6808668  56.1542937  18.9714932  55.5665263  57.0636811
  17.8259587  55.2826153  56.1155110  18.5995520  41.7045434  63.1947686
  17.6858600  41.9349661  63.3629893  19.0288622  41.7883878  64.0461718
  18.3701979  49.8935326  65.6947580  17.7173429  50.1411233  65.0400033
  18.7482358  49.0799464  65.3610057  15.3309152  59.9295019  59.7975750
  15.5131547  59.1116675  60.2603503  16.1542138  60.1462711  59.3600640
  15.6651318  58.8563204  57.0590799  16.1939084  58.3455659  56.4460961
  15.9279538  58.5405734  57.9236332   4.3894643  48.1696776  56.5984507
   4.6848084  47.2607454  56.5451561   3.4882679  48.1484515  56.2765509
   7.9188890  46.2452772  62.5812056   7.1975476  46.8588740  62.4419529
   8.7082146  46.7810537  62.5028702  18.3615630  57.6913060  65.0314465
  17.4145966  57.5718411  64.9592792  18.7098403  56.8035558  65.1140727
   6.1182485  45.8510873  56.7223832   5.7895191  44.9708252  56.5398938
   6.4721855  45.7958542  57.6100221  15.3662063  57.4865776  61.2318818
  15.2187026  56.5582483  61.4126388  16.1915557  57.5085867  60.7475893
   9.2324308  46.1383843  57.0899310   9.5720380  46.6669764  56.3677918
   9.6796428  46.4764249  57.8657876  18.9696185  58.3094335  62.3183690
  19.8942733  58.1037196  62.1808142  18.8011489  58.0610736  63.2273032
  11.9267749  44.5220894  66.5402378  11.5864569  43.7228707  66.9423058
  11.2206755  44.8222605  65.9679211  12.5784220  41.6070206  64.9929701
  13.4010290  41.1330684  64.8708591  12.8222284  42.3860690  65.4928387
  11.2192455  44.6358465  55.2892603  11.9400817  45.0139718  54.7856319
  10.5957759  45.3547342  55.3927581  15.3623578  45.3403614  56.2250935
  15.5787192  46.2228252  55.9239763  14.8817645  44.9489827  55.4956577
  10.1022799  48.2989327  62.8021679   9.9567380  48.6129630  63.6945961
   9.6248003  48.9174227  62.2492578  11.9619182  45.2891875  62.8502569
  11.9480751  44.3932968  62.5134867  12.6791610  45.2962539  63.4840855
  13.8145313  45.7229215  64.8955696  13.5563091  46.6446286  64.8940027
  13.2830353  45.3259650  65.5856161  18.7591502  58.8280002  57.6745782
  18.9328379  58.2626425  56.9219634  19.2520393  59.6280897  57.4925272
  11.3656078  44.1706255  58.1190139  11.4871989  43.2422901  58.3181027
  11.0758120  44.1844941  57.2068455  14.2347268  41.8561166  61.2556859
  14.2568965  41.9200499  60.3008839  14.6515327  41.0165674  61.4497365
  24.6130893  51.5916425  59.2936082  25.0562039  50.8423750  58.8955205
  23.7357403  51.5826562  58.9109814  19.7466674  58.1446767  54.7742680
  20.4417579  58.7653459  54.9929995  20.0889824  57.2942118  55.0495058
  21.6458097  55.5946472  56.3030011  22.1709421  55.9333745  55.5779331
  21.5580450  54.6593488  56.1193146  21.4549878  53.0771842  68.9213937
  21.5047883  52.9121850  69.8629460  21.3463802  52.2099101  68.5311818
  10.3386137  55.7560388  56.2106026  10.4874257  56.4395852  55.5572699
  11.1452580  55.7365478  56.7255482  18.7453641  49.0602770  70.2373244
  19.6463503  48.9209235  69.9457242  18.8201615  49.2257225  71.1771422
  22.9568075  55.4968784  69.1655959  22.6652883  55.8598764  70.0019420
  22.3440206  54.7835792  68.9869291  24.1563757  53.0621663  61.6858529
  24.9910649  53.5011468  61.8496090  24.2922886  52.5860317  60.8666775
  21.2055263  50.6201398  67.6336017  21.6809385  50.8129045  66.8254868
  20.2820829  50.6760584  67.3879401   8.0938770  51.7825566  57.2167095
   7.8484812  50.8787896  57.4147305   8.2634684  51.7842716  56.2746573
  15.7835480  42.6549242  66.5991851  16.3017424  43.3910269  66.2738339
  15.4290613  42.9613235  67.4338610   7.3634417  47.5153923  54.7153257
   6.6703662  47.5898278  54.0593293   7.1186169  46.7514267  55.2374774
  16.0348074  39.0749524  62.1192747  16.3149828  38.4072714  62.7453174
  16.8198681  39.2678620  61.6067411  13.8381542  58.2508518  53.6817774
  13.2655510  58.8698705  53.2288246  14.4114336  58.8007880  54.2157696
  19.9056932  47.4967158  65.8664323  20.8574355  47.5965256  65.8876547
  19.7360383  46.7045427  66.3762407  17.9271312  44.5822742  66.0523723
  17.3321244  44.8627754  65.3570212  17.6421008  45.0716643  66.8240465
  17.0578802  58.5345668  54.8126356  17.9909475  58.4691230  55.0159232
  16.9702015  59.3701935  54.3540889  19.6866819  57.8511539  51.7730304
  19.6080450  57.5171402  52.6666061  20.5076486  58.3433307  51.7721776
  22.3845010  50.7173278  64.9806622  22.3521330  49.7789279  65.1666306
  22.9945634  50.7957315  64.2472447  14.2228341  49.5869331  51.0233826
  15.1687446  49.4575539  51.0922244  13.8442586  48.8483993  51.5003254
  22.5339499  47.5084322  65.0264905  22.0178547  46.7242778  64.8394834
  23.4179447  47.1803038  65.1911425  20.1950225  41.2525337  60.9860718
  19.9975047  40.9440425  61.8704050  20.8049931  41.9786976  61.1158648
  28.2021560  51.7789285  64.1212659  28.9324948  51.5174573  64.6820362
  27.5928505  51.0418007  64.1614727  26.2836857  49.9197148  64.7187110
  25.5570021  49.7853112  64.1103602  25.8684144  50.2273976  65.5243828
  12.4071258  47.5119307  50.9588711  11.5002713  47.2152420  51.0351425
  12.6847239  47.2149126  50.0922998  14.0233324  42.0556197  57.1132953
  13.2134052  41.7103282  57.4888199  14.7117741  41.7463741  57.7020564
  15.9523872  41.1334244  58.7357249  16.5054911  41.5529697  59.3947273
  16.1893958  40.2069992  58.7780205  11.1770043  44.3706243  51.1000691
  12.0389207  44.6961141  51.3596508  11.3620387  43.5837739  50.5873756
  19.3302679  43.2434769  58.2435914  18.7501348  43.9019573  57.8613966
  19.0638612  42.4212114  57.8323331  17.7806246  42.6439827  60.4457234
  18.2806024  42.7556361  59.6371553  18.4241853  42.3400880  61.0858042
  18.1127557  45.4034860  57.2992262  17.2253412  45.6884510  57.0812457
  18.5281546  45.2428623  56.4519539  21.4642093  45.4281381  61.0146601
  22.2402483  45.9177833  61.2871218  20.7390228  45.8539435  61.4718471
  23.9014652  46.1409000  62.0720542  24.4959143  45.9004736  61.3613850
  23.9741236  45.4216130  62.6994078  17.2570771  55.1679534  51.3940282
  17.9606621  55.3729537  52.0097938  16.5333419  55.7356296  51.6589365
  18.0868581  50.9189395  57.5142552  18.0303782  51.3757947  56.6750184
  18.6396923  50.1580080  57.3365395  21.8973387  46.7079127  58.3392672
  21.6410321  46.3075763  59.1700879  21.2726255  47.4222921  58.2142811
  26.2085725  49.4475201  60.8463963  25.6485283  49.5168390  61.6195525
  25.6029228  49.2716185  60.1263459  19.1657468  55.6062063  53.4438742
  20.0003072  55.1743262  53.2616217  19.0041811  55.4344077  54.3715636
  18.8203360  52.1094177  54.8095081  18.7652164  51.9438448  53.8683525
  18.1949416  52.8170210  54.9657271  12.1299486  41.6102286  54.3880400
  12.1178156  42.5544126  54.5448671  13.0222908  41.4272431  54.0939861
  15.9451605  38.2045062  58.6426336  15.1784001  37.6503549  58.7883019
  16.3562310  38.2766931  59.5040488  27.7941743  66.1231715  63.5393919
  28.4320153  66.0038462  62.8357259  27.6762586  67.0712558  63.5981871
  24.6031449  66.0759143  63.4755443  24.2649961  65.9600207  62.5875978
  25.4721218  65.6750308  63.4556450  22.3039729  64.8447390  52.8072384
  22.5565250  64.3228911  52.0455847  21.3664288  64.6813535  52.9099067
  27.3483012  63.8483168  60.6147127  28.1346101  63.4302592  60.2637544
  27.6121716  64.7529261  60.7828775  27.5193089  69.2856019  55.3135784
  26.8838922  69.3590645  56.0256688  27.1890495  69.8749618  54.6354863
  32.7491439  63.7858402  61.5180105  33.4816611  63.2157618  61.7517935
  31.9930794  63.3980002  61.9586611  22.0236018  66.7475496  55.0096758
  21.9072276  66.0720399  55.6777843  22.1338277  66.2607870  54.1928912
  24.3667559  66.2085643  58.7143448  24.0025766  65.6816264  59.4256369
  25.2234674  65.8184112  58.5409933  30.2716859  57.4979976  65.9774714
  29.9400184  58.3675387  65.7535929  29.6762473  57.1816260  66.6568744
  24.0073045  61.2375543  53.7104796  24.1747448  62.1055779  54.0775267
  23.8170215  61.4002824  52.7866085  20.2160860  66.1506319  61.4107331
  19.2911357  66.0182533  61.6185023  20.4645273  66.9300538  61.9077273
  30.1645522  62.2175062  63.0568064  29.2562400  62.1490470  62.7626825
  30.1133118  62.6947007  63.8849889  23.9862266  63.6933200  54.6951463
  23.8661892  64.1390251  55.5336943  23.2914855  64.0418518  54.1365001
  32.0307169  60.4191500  64.8345938  31.3881549  60.7124033  64.1885732
  31.5262097  60.3044421  65.6399135  29.6847333  64.1654673  55.5231797
  30.5965189  64.3982060  55.3479495  29.1756980  64.7491718  54.9606876
  27.0283307  60.3412709  63.7721658  26.1667786  60.6393963  64.0638396
  27.0545742  60.5583108  62.8402691  22.7813763  65.0078052  56.9885029
  23.4837806  65.4599096  57.4558955  22.4494391  64.3661871  57.6164922
  18.4753842  63.6306184  59.2485639  17.6785005  63.7424879  59.7669135
  18.2479434  63.9692836  58.3826530  27.3699991  55.3449557  65.5946027
  27.0264260  56.2351199  65.5185138  27.7378954  55.1551214  64.7315612
  27.3350274  65.3358168  54.1018463  26.8196897  66.1062773  54.3406850
  27.0627582  64.6623304  54.7251524  24.9197385  60.1807869  59.1603701
  24.0638981  59.7914719  58.9809340  25.3324336  60.2599830  58.3003486
  26.4496531  57.7154212  63.5595261  25.9461327  57.6784347  62.7463066
  26.7427138  58.6246955  63.6191917  22.6939417  57.7992942  62.5661442
  23.5592414  57.6035750  62.2067332  22.7616926  57.5703294  63.4930799
  32.3084548  68.0890523  56.0371636  31.5313991  67.7501682  55.5926798
  32.9876029  68.0943146  55.3626601  27.1236577  63.2085260  55.9278244
  26.8186712  63.5231409  56.7788387  28.0767019  63.2866680  55.9705577
  20.3001736  60.0295150  59.9377809  20.8745488  59.8070331  59.2051002
  20.8872719  60.0983844  60.6906411  29.3581314  65.9168877  60.7442186
  29.8713195  66.5498868  61.2463896  30.0082537  65.3170072  60.3785546
  20.6271323  62.0599611  53.9573695  19.7908636  62.3974297  54.2782969
  20.4876093  61.9248590  53.0200832  22.6024404  56.9036399  58.6652879
  21.9488816  56.5885416  58.0409493  22.5604878  56.2812139  59.3912702
  23.7135609  67.1855694  50.5806171  22.8062671  66.9544947  50.7797320
  24.2106641  66.3893313  50.7680152  25.8362144  63.3918332  62.9900526
  24.9184706  63.6133279  62.8322214  26.2522288  63.4664643  62.1312234
  26.6197192  64.7909748  58.1203207  27.3669011  65.3031145  57.8110329
  26.8888782  64.4693801  58.9807600  24.8923842  67.2868289  55.1030161
  23.9835062  67.0027321  55.2002631  24.9218926  67.7067367  54.2433468
  29.0676029  61.8266864  60.1021996  28.3298786  61.3144250  60.4332238
  29.3202803  61.3867246  59.2905273  29.1687657  54.6043116  60.6963765
  29.4746533  53.7440479  60.4089680  29.8940261  55.1960736  60.4962759
  23.4408736  64.8996909  61.2039956  23.4957346  63.9470746  61.1282433
  22.6299938  65.0556348  61.6881255  24.5899930  68.8277032  52.4418239
  24.1519360  68.1112891  51.9823877  25.3310371  69.0553147  51.8803331
  21.3801096  63.5173969  58.9630335  20.5668962  63.8168139  59.3695527
  21.8760090  63.1229658  59.6804817  32.7073045  67.1034229  58.4994558
  32.5690943  67.2935825  57.5715747  32.3509264  67.8653612  58.9562609
  20.8715171  61.0892324  64.5791570  21.5114550  60.9481083  63.8814533
  20.0392702  60.8026838  64.2030172  17.9558238  64.5337837  56.7686315
  17.0255826  64.4722292  56.9856277  18.0515710  64.0113789  55.9722956
  17.8743787  61.0592649  59.3564557  18.1350605  61.9737983  59.2473717
  18.6960960  60.5917092  59.5061170  28.7111158  67.6861414  52.0350297
  28.0940328  66.9608242  51.9383350  28.2427646  68.4470774  51.6917371
  20.5009704  61.9046838  51.1571601  19.6239170  61.7835639  50.7933848
  20.9767457  61.1132916  50.9050490  26.9970280  60.0667758  61.0468327
  27.4938979  59.3137720  60.7269397  26.2257261  60.1032075  60.4811537
  28.0800060  68.8239445  58.6206751  27.1456339  68.9440908  58.4511455
  28.2576729  67.9211912  58.3566760  23.5805249  62.2085141  60.7740012
  23.2103036  61.6556181  61.4620917  24.0764341  61.6043274  60.2215012
  31.4672612  64.6656764  59.1556785  31.9333064  65.4984756  59.0817087
  31.9180112  64.2001746  59.8602043  29.4389275  57.0337351  63.1947686
  28.5252354  57.2641578  63.3629893  29.8682376  57.1175796  64.0461718
  15.2288397  63.4988693  56.5984507  15.5241839  62.5899372  56.5451561
  14.3276433  63.4776433  56.2765509  18.7582644  61.5744690  62.5812056
  18.0369230  62.1880658  62.4419529  19.5475900  62.1102455  62.5028702
  16.9576239  61.1802791  56.7223832  16.6288945  60.3000170  56.5398938
  17.3115610  61.1250460  57.6100221  20.0718062  61.4675761  57.0899310
  20.4114135  61.9961682  56.3677918  20.5190183  61.8056167  57.8657876
  22.7661503  59.8512812  66.5402378  22.4258323  59.0520625  66.9423058
  22.0600509  60.1514522  65.9679211  23.4177975  56.9362124  64.9929701
  24.2404044  56.4622602  64.8708591  23.6616038  57.7152608  65.4928387
  22.0586209  59.9650382  55.2892603  22.7794572  60.3431635  54.7856319
  21.4351513  60.6839259  55.3927581  26.2017332  60.6695531  56.2250935
  26.4180947  61.5520169  55.9239763  25.7211399  60.2781745  55.4956577
  20.9416554  63.6281245  62.8021679  20.7961134  63.9421548  63.6945961
  20.4641757  64.2466145  62.2492578  22.8012937  60.6183793  62.8502569
  22.7874505  59.7224886  62.5134867  23.5185365  60.6254456  63.4840855
  24.6539067  61.0521133  64.8955696  24.3956845  61.9738203  64.8940027
  24.1224108  60.6551567  65.5856161  22.2049832  59.4998173  58.1190139
  22.3265744  58.5714819  58.3181027  21.9151875  59.5136859  57.2068455
  25.0741023  57.1853083  61.2556859  25.0962720  57.2492416  60.3008839
  25.4909082  56.3457592  61.4497365  35.4524647  66.9208343  59.2936082
  35.8955793  66.1715668  58.8955205  34.5751157  66.9118479  58.9109814
  32.4851852  70.9238390  56.3030011  33.0103176  71.2625663  55.5779331
  32.3974204  69.9885405  56.1193146  26.6229234  57.9841160  66.5991851
  27.1411178  58.7202187  66.2738339  26.2684367  58.2905153  67.4338610
  18.2028172  62.8445841  54.7153257  17.5097417  62.9190196  54.0593293
  17.9579924  62.0806184  55.2374774  26.8741828  54.4041442  62.1192747
  27.1543582  53.7364631  62.7453174  27.6592435  54.5970538  61.6067411
  28.7665066  59.9114659  66.0523723  28.1714998  60.1919672  65.3570212
  28.4814763  60.4008560  66.8240465  25.0622095  64.9161249  51.0233826
  26.0081200  64.7867457  51.0922244  24.6836340  64.1775911  51.5003254
  31.0343980  56.5817255  60.9860718  30.8368801  56.2732343  61.8704050
  31.6443686  57.3078894  61.1158648  23.2465013  62.8411225  50.9588711
  22.3396468  62.5444338  51.0351425  23.5240994  62.5441043  50.0922998
  24.8627078  57.3848115  57.1132953  24.0527807  57.0395200  57.4888199
  25.5511495  57.0755659  57.7020564  26.7917627  56.4626162  58.7357249
  27.3448665  56.8821615  59.3947273  27.0287713  55.5361910  58.7780205
  22.0163797  59.6998160  51.1000691  22.8782961  60.0253059  51.3596508
  22.2014141  58.9129656  50.5873756  30.1696434  58.5726687  58.2435914
  29.5895103  59.2311491  57.8613966  29.9032366  57.7504031  57.8323331
  28.6200000  57.9731745  60.4457234  29.1199778  58.0848279  59.6371553
  29.2635608  57.6692797  61.0858042  28.9521312  60.7326777  57.2992262
  28.0647167  61.0176428  57.0812457  29.3675301  60.5720541  56.4519539
  32.3035848  60.7573298  61.0146601  33.0796238  61.2469751  61.2871218
  31.5783982  61.1831352  61.4718471  34.7408406  61.4700917  62.0720542
  35.3352897  61.2296653  61.3613850  34.8134990  60.7508048  62.6994078
  28.9262335  66.2481313  57.5142552  28.8697537  66.7049865  56.6750184
  29.4790678  65.4871998  57.3365395  32.7367141  62.0371045  58.3392672
  32.4804076  61.6367681  59.1700879  32.1120009  62.7514839  58.2142811
  29.6597115  67.4386094  54.8095081  29.6045919  67.2730366  53.8683525
  29.0343170  68.1462127  54.9657271  22.9693240  56.9394203  54.3880400
  22.9571910  57.8836043  54.5448671  23.8616662  56.7564349  54.0939861
  26.7845360  53.5336980  58.6426336  26.0177755  52.9795467  58.7883019
  27.1956065  53.6058849  59.5040488   6.1154235  12.4710002  50.2639225
   6.7532645  12.3516749  49.5602565   5.9975078  13.4190846  50.3227177
   2.9243942  12.4237430  50.2000750   2.5862453  12.3078495  49.3121285
   3.7933710  12.0228595  50.1801756   4.3630316  17.9443874  41.5012106
   3.7118296  18.5297954  41.1146120   5.1574679  18.4750069  41.5607143
   5.6695504  10.1961456  47.3392433   6.4558593   9.7780879  46.9882850
   5.9334208  11.1007548  47.5074082   5.8405581  15.6334306  42.0381090
   5.2051414  15.7068932  42.7501995   5.5102988  16.2227905  41.3600169
  11.0703931  10.1336689  48.2425412  11.8029103   9.5635906  48.4763241
  10.3143287   9.7458289  48.6831917   2.6880051  12.5563930  45.4388754
   2.3238258  12.0294551  46.1501676   3.5447167  12.1662399  45.2655240
   5.0860871  16.0470809  52.1015933   4.7861594  16.9495848  51.9931740
   4.7411930  15.7802992  52.9537086   8.4858015   8.5653349  49.7813371
   7.5774892   8.4968758  49.4872132   8.4345611   9.0425294  50.6095196
   2.3074759  10.0411488  41.4196770   2.1874384  10.4868538  42.2582250
   1.6127347  10.3896805  40.8610308   8.0059825  10.5132961  42.2477104
   8.9177681  10.7460347  42.0724801   7.4969472  11.0970005  41.6852182
   6.6129407  15.4958779  49.6390685   5.9838270  15.6604493  48.9366753
   6.2255069  15.9100389  50.4101649  10.4918639  16.4313217  46.9935049
   9.8069677  16.8112118  46.4432082  10.5762488  17.0408544  47.7266997
   7.7469571  14.0773176  53.5930392   7.9586466  14.7204936  52.9164774
   7.6999319  13.2435493  53.1252323   2.1657369  15.2333187  46.9040770
   2.6295715  15.5120890  46.1145393   1.9014167  14.3316632  46.7213861
   1.1026255  11.3556340  43.7130335   1.8050298  11.8077383  44.1804262
   0.7706884  10.7140158  44.3410229   8.8615399  16.9545131  51.7652750
   9.6832842  16.5525319  51.4835431   8.8577801  16.8513366  52.7168866
  16.9521392  13.2983880  48.1137721  16.1985100  12.7291278  47.9581726
  17.0868933  13.2646544  49.0608356   2.3420020  18.1697282  43.7892441
   2.2065694  19.0148818  44.2177288   2.8829832  18.3716560  43.0258374
   6.0669734  19.0723649  55.9474184   6.0488209  19.8932530  55.4554453
   6.9889654  18.9477724  56.1724325   5.6562766  11.6836455  40.8263769
   5.1409389  12.4541060  41.0652157   5.3840074  11.0101591  41.4496831
  10.6297040  14.4368810  42.7616943   9.8526483  14.0979969  42.3172105
  11.3088521  14.4421433  42.0871908   5.4449069   9.5563547  42.6523550
   5.1399205   9.8709696  43.5033694   6.3979511   9.6344967  42.6950883
   3.8895501  15.7153771  44.3016504   3.3616863  14.9806530  43.9889742
   3.3883004  16.4928447  44.0556473   8.8688347  13.9102791  49.4183551
   8.2112021  14.6002053  49.5063679   9.6728746  14.2999223  49.7617537
   7.6793806  12.2647164  47.4687492   8.1925688  12.8977156  47.9709202
   8.3295030  11.6648359  47.1030852   2.0348101  13.5333981  37.3051477
   1.1275163  13.3023234  37.5042626   2.5319133  12.7371600  37.4925459
   4.9416180  22.2431488  40.2248164   4.2677879  22.5463185  40.8333121
   5.3282002  23.0460568  39.8753621   4.1574637   9.7396619  49.7145833
   3.2397198   9.9611566  49.5567521   4.5734780   9.8142930  48.8557540
   4.9409684  11.1388035  44.8448513   5.6881503  11.6509432  44.5355635
   5.2101274  10.8172088  45.7052907   3.2136335  13.6346576  41.8275468
   2.3047554  13.3505609  41.9247937   3.2431418  14.0545654  40.9678774
   8.4455602  17.2453165  45.5966635   7.9917929  16.4044075  45.6531826
   7.8149569  17.8814564  45.9341415   7.3888522   8.1745151  46.8267303
   6.6511278   7.6622537  47.1577545   7.6415295   7.7345533  46.0150579
   6.8888541  19.0829662  46.5316453   7.1811516  19.6434719  45.8128819
   7.3987162  19.3758223  47.2869612   1.7621229  11.2475196  47.9285263
   1.8169838  10.2949033  47.8527739   0.9512431  11.4034635  48.4126561
   2.9112422  15.1755319  39.1663546   2.4731852  14.4591178  38.7069183
   3.6522863  15.4031434  38.6048637   1.8522166  19.8610013  47.6209906
   1.8098345  20.0870859  46.6918438   2.7684865  19.6273388  47.7695708
  11.0285537  13.4512516  45.2239865  10.8903436  13.6414112  44.2961054
  10.6721756  14.2131899  45.6807916  11.0554917  15.5189043  50.2351136
  11.4891423  15.4264333  51.0834190  11.7686497  15.4946544  49.5971152
   4.7882812  19.1191138  51.7684237   4.8419834  19.6882074  52.5361953
   3.9197593  19.2893023  51.4038274  11.9170466  15.5612744  52.7684022
  12.1106356  16.4658555  53.0143296  11.8171084  15.1020163  53.6022607
   2.5459243  17.3102064  51.0969706   2.4070329  16.9420848  51.9695644
   1.7573839  17.8249703  50.9253664   3.1407395  22.4111160  42.4395243
   3.3159151  21.9399204  43.2540865   2.4540183  23.0376927  42.6676503
   4.0964458  16.6883667  48.4858544   3.7614291  16.6484437  49.3816194
   3.5968404  16.0228383  48.0128954   7.0323650  14.0339701  38.7595604
   6.4152821  13.3086529  38.6628656   6.5640138  14.7949061  38.4162678
   8.6877782  18.7438609  56.4201384   8.6290328  18.0597830  55.7531967
   9.0897300  19.4857599  55.9682010   8.6895189  16.7078193  54.6515364
   7.8021968  16.3704115  54.7741763   9.2593740  15.9761225  54.8884129
   2.2196342  21.3679646  51.6176607   2.1466514  22.1734617  52.1295911
   1.7773735  21.5671612  50.7924628   2.0086122  20.6051416  45.1279428
   1.2253644  21.1473096  45.2217653   2.7078867  21.1225395  45.5273670
  13.1712529  12.1186411  49.4131925  13.1602406  13.0011126  49.0425858
  12.3029909  11.7657962  49.2186462   4.6795026  21.2666480  53.7734766
   5.3922998  21.9013945  53.7010667   4.1885054  21.3630346  52.9574767
   6.4012553  15.1717732  45.3452057   5.4668831  15.2919195  45.1756762
   6.5789221  14.2690199  45.0812067   9.7885104  11.0135052  45.8802091
  10.2545556  11.8463043  45.8062394  10.2392605  10.5480033  46.5847350
   7.8561335  17.3578873  42.8788243   8.1321179  17.2435468  43.7882117
   6.9865834  16.9596358  42.8400417   7.5308225  11.5705531  52.4192887
   6.8779676  11.8181438  51.7645340   7.9088605  10.7569669  52.0855364
   4.4915399  21.6065224  46.5221057   4.6737794  20.7886880  46.9848809
   5.3148385  21.8232916  46.0845947   4.8257565  20.5333409  43.7836106
   5.3545331  20.0225864  43.1706268   5.0885784  20.2175939  44.6481639
   2.3218581  23.6192269  53.1416540   2.8736889  23.7823891  53.9065625
   2.6624775  24.2096707  52.4696565   5.4586969  21.5674245  50.1280222
   5.3338108  20.7663985  49.6191167   6.1166060  22.0620438  49.6394192
   7.5221877  19.3683265  51.7559772   6.5752212  19.2488616  51.6838099
   7.8704650  18.4805763  51.8386034   4.5268310  19.1635981  47.9564124
   4.3793273  18.2352688  48.1371694   5.3521804  19.1856072  47.4721200
   8.1302432  19.9864540  49.0428997   9.0548980  19.7807401  48.9053448
   7.9617735  19.7380941  49.9518339   7.9197748  20.5050207  44.3991089
   8.0934626  19.9396630  43.6464941   8.4126639  21.3051102  44.2170578
  13.7737139  13.2686630  46.0181388  14.2168285  12.5193955  45.6200512
  12.8963650  13.2596766  45.6355120   8.9072921  19.8216972  41.4987987
   9.6023825  20.4423664  41.7175301   9.2496071  18.9712323  41.7740365
  10.8064344  17.2716677  43.0275318  11.3315668  17.6103950  42.3024638
  10.7186696  16.3363692  42.8438452   2.4684393  21.1850751  55.1565194
   2.7771519  20.9399898  56.0287894   3.2659875  21.3897389  54.6684064
   2.4905005  23.3388660  47.3870571   2.0509995  22.8465039  48.0803427
   3.2413122  22.7961628  47.1462646  12.1174322  17.1738989  55.8901266
  11.8259130  17.5368969  56.7264727  11.5046453  16.4605997  55.7114598
  13.3170004  14.7391868  48.4103836  14.1516896  15.1781672  48.5741396
  13.4529133  14.2630522  47.5912082  10.3661510  12.2971603  54.3581324
  10.8415632  12.4899250  53.5500175   9.4427075  12.3530789  54.1124707
   2.9987789  19.9278723  40.4063080   2.4261756  20.5468910  39.9533552
   3.5720583  20.4778085  40.9403002   6.2185049  20.2115873  41.5371663
   7.1515722  20.1461435  41.7404538   6.1308262  21.0472140  41.0786195
   8.8473066  19.5281744  38.4975610   8.7686697  19.1941607  39.3911368
   9.6682732  20.0203512  38.4967083  11.5451257  12.3943483  51.7051929
  11.5127577  11.4559484  51.8911613  12.1551880  12.4727520  50.9717754
   3.3834588  11.2639536  37.7479133   4.3293692  11.1345744  37.8167551
   3.0048833  10.5254198  38.2248561  11.6945745   9.1854526  51.7510212
  11.1784794   8.4012983  51.5640141  12.5785694   8.8573243  51.9156731
  17.3627807  13.4559490  50.8457966  18.0931195  13.1944778  51.4065669
  16.7534752  12.7188212  50.8860034  15.4443104  11.5967352  51.4432417
  14.7176267  11.4623317  50.8348908  15.0290391  11.9044181  52.2489135
   7.2733804   7.0805064  44.0237569   6.3859659   7.3654715  43.8057763
   7.6887793   6.9198828  43.1764845  10.6248340   7.1051585  47.7391908
  11.4008730   7.5948038  48.0116525   9.8996474   7.5309640  48.1963777
  13.0620899   7.8179205  48.7965848  13.6565390   7.5774941  48.0859157
  13.1347482   7.0986335  49.4239385   6.4177017  16.8449739  38.1185589
   7.1212868  17.0499742  38.7343244   5.6939666  17.4126501  38.3834672
   7.2474828  12.5959600  44.2387859   7.1910029  13.0528152  43.3995491
   7.8003170  11.8350285  44.0610701  11.0579634   8.3849332  45.0637978
  10.8016568   7.9845968  45.8946186  10.4332502   9.0993126  44.9388117
  15.3691971  11.1245406  47.5709270  14.8091529  11.1938595  48.3440832
  14.7635475  10.9486390  46.8508766   8.3263715  17.2832268  40.1684049
   9.1609319  16.8513467  39.9861523   8.1648058  17.1114282  41.0960943
   7.9809607  13.7864382  41.5340388   7.9258411  13.6208653  40.5928832
   7.3555662  14.4940415  41.6902578  16.9547990  27.8001919  50.2639225
  17.5926400  27.6808667  49.5602565  16.8368833  28.7482763  50.3227177
  13.7637696  27.7529348  50.2000750  13.4256208  27.6370412  49.3121285
  14.6327464  27.3520513  50.1801756   9.6224512  29.6064824  46.1897641
   9.0589377  29.5154761  45.4213929   9.5076907  28.7864728  46.6700134
  14.2457479  28.9064199  56.1586956  14.2346120  28.5116998  55.2867459
  14.4078119  28.1730272  56.7520727   7.1688944  31.1016016  49.0281861
   7.9610236  30.7606840  48.6128161   7.4085594  31.2110991  49.9484015
  15.2024071  33.2735792  41.5012106  14.5512050  33.8589872  41.1146120
  15.9968433  33.8041987  41.5607143   9.1279698  30.3624929  41.8999240
   9.9010574  29.8153916  41.7612116   9.4805097  31.2269178  42.1113702
  10.9664740  31.6901311  55.1066140  10.6754606  32.5946942  54.9912806
  11.6021725  31.7317839  55.8210209  11.8920947  29.0678160  51.6967499
  12.4884519  28.8434182  50.9824462  11.9495919  28.3262905  52.2992947
  11.4645976  26.5217595  39.5317690  11.7171496  25.9999116  38.7701153
  10.5270535  26.3583740  39.6344374  16.5089258  25.5253373  47.3392433
  17.2952348  25.1072796  46.9882850  16.7727963  26.4299465  47.5074082
  16.6799336  30.9626224  42.0381090  16.0445169  31.0360850  42.7501995
  16.3496742  31.5519822  41.3600169  21.9097686  25.4628606  48.2425412
  22.6422857  24.8927823  48.4763241  21.1537041  25.0750207  48.6831917
  11.1842264  28.4245701  41.7342065  11.0678522  27.7490604  42.4023149
  11.2944524  27.9378075  40.9174218  13.5273805  27.8855848  45.4388754
  13.1632013  27.3586469  46.1501676  14.3840921  27.4954317  45.2655240
  19.4323106  19.1750181  52.7020020  19.1006431  20.0445592  52.4781235
  18.8368719  18.8586465  53.3814051  13.1679292  22.9145748  40.4350103
  13.3353695  23.7825984  40.8020574  12.9776461  23.0773029  39.5111392
  15.9254625  31.3762727  52.1015933  15.6255349  32.2787765  51.9931740
  15.5805685  31.1094910  52.9537086   9.3767107  27.8276523  48.1352638
   8.4517603  27.6952738  48.3430329   9.6251520  28.6070743  48.6322580
  19.3251769  23.8945267  49.7813371  18.4168647  23.8260675  49.4872132
  19.2739365  24.3717212  50.6095196  13.1468513  25.3703405  41.4196770
  13.0268138  25.8160456  42.2582250  12.4521102  25.7188723  40.8610308
   6.7375918  27.4709797  48.9696427   6.8668299  27.7244276  49.8835838
   6.0573369  28.0637505  48.6501082  10.9075405  38.1407047  45.0686901
  10.8299435  39.0914872  45.1475381  10.3037049  37.7952919  45.7261827
  13.3992635  25.3134912  57.7248268  12.6225969  25.8728833  57.7151132
  14.0383198  25.7991695  58.2463138  21.1913416  22.0961705  51.5591244
  20.5487796  22.3894238  50.9131039  20.6868344  21.9814626  52.3644441
  18.8453579  25.8424878  42.2477104  19.7571435  26.0752265  42.0724801
  18.3363226  26.4261923  41.6852182  11.6539007  28.1220366  57.2866235
  12.3953692  28.6605410  57.0101058  10.9475993  28.7486654  57.4437787
  17.1294347  30.2649506  55.8838396  17.5377703  29.8231917  55.1393029
  16.4071608  29.6902134  56.1372589  13.4825417  25.2022113  53.2571953
  14.3286612  25.6261527  53.4006602  13.4224055  24.5455737  53.9510516
  17.4523162  30.8250697  49.6390685  16.8232024  30.9896411  48.9366753
  17.0648824  31.2392306  50.4101649  16.6324862  22.8626481  54.9153127
  16.3885794  23.6168542  54.3787403  16.9084793  23.2411829  55.7500374
  18.5863325  29.4065094  53.5930392  18.7980220  30.0496854  52.9164774
  18.5393073  28.5727410  53.1252323  16.1889554  22.0182914  50.4966965
  15.3274033  22.3164168  50.7883702  16.2151989  22.2353313  49.5647997
  13.0051123  30.5625105  46.9040770  13.4689469  30.8412808  46.1145393
  12.7407922  29.6608549  46.7213861   9.8975205  30.1096586  49.8420534
  10.4676562  30.5383855  49.2038018  10.4883316  29.8279171  50.5404719
  11.9420010  26.6848257  43.7130335  12.6444053  27.1369301  44.1804262
  11.6100638  26.0432076  44.3410229  10.3900371  25.2760014  58.0881545
   9.7599032  25.9576295  58.3216942  10.2836459  25.1643096  57.1434683
   5.6845343  24.9431810  49.0147469   4.8944397  25.1989338  48.5387580
   6.1756591  25.7580148  49.1199510   7.6360089  25.3076389  45.9730946
   6.8391252  25.4195083  46.4914441   7.4085681  25.6463041  45.1071836
  13.4665756  31.8321092  53.9213460  13.5310189  32.2941500  54.7571632
  12.7576680  31.2018457  54.0495770   3.9683046  25.1962300  51.4462460
   4.2191085  26.0809310  51.7120036   4.5042595  25.0166902  50.6737552
  13.1813774  33.4989200  43.7892441  13.0459449  34.3440736  44.2177288
  13.7223587  33.7008478  43.0258374   6.6343172  31.0164638  44.3620366
   7.1467692  31.8107888  44.5125930   7.2865884  30.3190928  44.2953967
   8.4438056  34.1330394  46.4443119   8.6204685  35.0548359  46.2564103
   9.2394890  33.8188813  46.8737499  12.5849075  20.9938659  58.0427052
  13.3258788  21.5945812  57.9631515  12.8166998  20.2516297  57.4845095
   7.7290413  26.1795026  56.3205282   7.6143928  25.2780283  56.6212381
   6.8734931  26.4258723  55.9690099  14.8082251  34.1212766  57.9192783
  14.3646105  33.3349145  57.6013687  15.4699464  34.3091917  57.2536674
   9.5669372  35.6508568  52.4453461  10.1176797  35.5225631  51.6730455
   8.7280848  35.9503457  52.0948354  16.9063489  34.4015566  55.9474184
  16.8881964  35.2224447  55.4554453  17.8283409  34.2769642  56.1724325
  13.3636543  31.9159696  56.7897692  13.8964880  31.1547984  56.5597000
  12.8350624  31.6233348  57.5321847  16.5306238  17.0219762  52.3191334
  16.1870507  17.9121403  52.2430445  16.8985200  16.8321419  51.4560919
   4.5992088  29.3453292  45.1379936   5.4367310  29.7550301  44.9213644
   4.7770356  28.4052734  45.1080130  16.4956520  27.0128373  40.8263769
  15.9803144  27.7832978  41.0652157  16.2233829  26.3393509  41.4496831
  14.0803631  21.8578074  45.8849008  13.2245228  21.4684924  45.7054646
  14.4930583  21.9370034  45.0248793  15.6102778  19.3924417  50.2840567
  15.1067574  19.3554552  49.4708373  15.9033385  20.3017160  50.3437224
  11.8545664  19.4763147  49.2906749  12.7198661  19.2805955  48.9312639
  11.9223173  19.2473498  50.2176106  16.2842824  24.8855465  42.6523550
  15.9792959  25.2001614  43.5033694  17.2373266  24.9636885  42.6950883
  14.7289255  31.0445688  44.3016504  14.2010617  30.3098448  43.9889742
  14.2276758  31.8220365  44.0556473   9.4607983  21.7065355  46.6623116
  10.0351735  21.4840536  45.9296309  10.0478966  21.7754049  47.4151717
  18.5187560  27.5939081  47.4687492  19.0319442  28.2269073  47.9709202
  19.1688784  26.9940277  47.1030852   9.7877570  23.7369816  40.6819001
   8.9514882  24.0744502  41.0028276   9.6482340  23.6018795  39.7446138
  11.7630651  18.5806603  45.3898185  11.1095063  18.2655621  44.7654800
  11.7211125  17.9582344  46.1158008  12.8741856  28.8625899  37.3051477
  11.9668917  28.6315152  37.5042626  13.3712888  28.0663518  37.4925459
  15.7809935  37.5723406  40.2248164  15.1071633  37.8755103  40.8333121
  16.1675756  38.3752486  39.8753621  14.9968391  25.0688537  49.7145833
  14.0790953  25.2903484  49.5567521  15.4128535  25.1434847  48.8557540
  15.7803439  26.4679953  44.8448513  16.5275258  26.9801350  44.5355635
  16.0495028  26.1464005  45.7052907  14.0530089  28.9638493  41.8275468
  13.1441308  28.6797526  41.9247937  14.0825173  29.3837572  40.9678774
  18.2282276  23.5037069  46.8267303  17.4905033  22.9914455  47.1577545
  18.4809050  23.0637451  46.0150579  18.3293903  16.2813321  47.4209072
  18.6352780  15.4210684  47.1334987  19.0546508  16.8730941  47.2208066
   4.6218259  26.6844008  45.8090670   4.4242659  26.0913368  45.0841736
   4.0664923  26.3796218  46.5266609  12.6014983  26.5767114  47.9285263
  12.6563593  25.6240950  47.8527739  11.7906185  26.7326553  48.4126561
  13.7506177  30.5047237  39.1663546  13.3125607  29.7883096  38.7069183
  14.4916618  30.7323352  38.6048637  10.5407343  25.1944174  45.6875642
   9.7275209  25.4938344  46.0940834  11.0366337  24.7999863  46.4050124
  12.6915921  35.1901931  47.6209906  12.6492100  35.4162777  46.6918438
  13.6078620  34.9565305  47.7695708  16.1381555  25.6585998  54.5190536
  16.4930942  25.8857471  55.3785001  16.7853686  25.9904375  53.8967791
  10.0321418  22.7662529  51.3036877  10.6720797  22.6251288  50.6059840
   9.1998948  22.4797043  50.9275479  10.8081722  32.0664960  47.4171869
  11.6022320  31.5715280  47.2154444  10.0973414  31.5382823  47.0539575
  15.6276566  34.4483055  51.7684237  15.6813588  35.0173992  52.5361953
  14.7591348  34.6184940  51.4038274   7.1164485  26.2108041  43.4931622
   6.1862073  26.1492497  43.7101584   7.2121957  25.6883994  42.6968263
   7.0350034  22.7362854  46.0809863   7.2956852  23.6508188  45.9719024
   7.8567207  22.2687297  46.2306476   8.5074960  24.1500611  53.2508688
   9.1798013  23.9417974  52.6021337   7.6804746  23.9522697  52.8113920
  22.7564221  30.8904662  52.7684022  22.9500111  31.7950472  53.0143296
  22.6564839  30.4312081  53.6022607  14.4100532  20.7762552  55.2674349
  13.7628447  21.4752502  55.1738825  15.1801547  21.2098696  55.6350597
  17.8179330  31.0411405  58.3424902  17.6664836  30.8121956  57.4254986
  17.8084009  31.9982006  58.3556247  14.5864666  28.6143317  53.3271169
  15.5156726  28.7654477  53.1540136  14.1655696  28.7027338  52.4719815
  13.3852998  32.6393982  51.0969706  13.2464083  32.2712766  51.9695644
  12.5967594  33.1541621  50.9253664  13.9801150  37.7403078  42.4395243
  14.1552905  37.2691121  43.2540865  13.2933938  38.3668844  42.6676503
  14.9358213  32.0175584  48.4858544  14.6008045  31.9776354  49.3816194
  14.4362159  31.3520300  48.0128954   8.9102457  27.4243214  54.0111125
   8.7722255  26.6923453  54.6122664   9.8207380  27.3352115  53.7295313
  17.8717404  29.3631619  38.7595604  17.2546575  28.6378447  38.6628656
  17.4033893  30.1240979  38.4162678  11.5384757  27.1363174  53.4994805
  12.2484376  26.4956366  53.4581423  11.4954066  27.3876069  54.4220986
  19.5271536  34.0730527  56.4201384  19.4684082  33.3889747  55.7531967
  19.9291055  34.8149517  55.9682010  10.2513691  24.1228392  55.3190444
   9.7151048  23.6719130  55.9712041   9.6630400  24.2574300  54.5760909
   8.5462235  40.8892441  49.2135103   8.7858833  41.5210965  49.8914121
   7.7031431  40.5380481  49.5000462   9.6615950  23.5817043  37.8816908
   8.7845417  23.4605844  37.5179155  10.1373703  22.7903121  37.6295797
  19.5288943  32.0370111  54.6515364  18.6415722  31.6996033  54.7741763
  20.0987494  31.3053142  54.8884129   1.1818091  28.3694203  47.9758415
   1.8689130  28.0555933  47.3879430   1.0266219  29.2735567  47.7025667
   5.9852813  23.2584399  52.4043439   5.9011001  22.6510069  51.6693849
   5.1635519  23.7493418  52.4052935  13.0590097  36.6971563  51.6176607
  12.9860268  37.5026535  52.1295911  12.6167490  36.8963529  50.7924628
  12.8479876  35.9343333  45.1279428  12.0647398  36.4765014  45.2217653
  13.5472622  36.4517313  45.5273670  16.1576527  21.7437963  47.7713634
  16.6545226  20.9907925  47.4514704  15.3863508  21.7802280  47.2056843
  15.5188780  36.5958397  53.7734766  16.2316753  37.2305862  53.7010667
  15.0278809  36.6922263  52.9574767  12.7411495  23.8855346  47.4985318
  12.3709283  23.3326386  48.1866224  13.2370588  23.2813479  46.9460318
  20.6278859  26.3426969  45.8802091  21.0939311  27.1754961  45.8062394
  21.0786359  25.8771951  46.5847350  10.5700694  34.3452841  54.5940336
  11.2710153  34.9789324  54.7469731  10.0995809  34.6867572  53.8335976
  18.6955090  32.6870791  42.8788243  18.9714934  32.5727385  43.7882117
  17.8259588  32.2888276  42.8400417  18.5995521  18.7107556  49.9192993
  17.6858601  18.9411783  50.0875200  19.0288623  18.7946000  50.7707025
  18.3701980  26.8997448  52.4192887  17.7173430  27.1473356  51.7645340
  18.7482360  26.0861587  52.0855364  15.3309154  36.9357142  46.5221057
  15.5131548  36.1178797  46.9848809  16.1542140  37.1524834  46.0845947
  15.6651319  35.8625327  43.7836106  16.1939086  35.3517781  43.1706268
  15.9279539  35.5467857  44.6481639  14.4189553  27.6417259  58.9058924
  13.7430190  27.5411389  59.5761299  15.2417187  27.4856473  59.3694921
   6.1668412  33.8789196  51.5271439   6.7521849  33.1332884  51.6599343
   5.9693250  34.1893153  52.4108103   9.0207067  36.9140443  46.5433881
   8.3517442  37.3986571  46.0597922   8.8819937  37.1609664  47.4577260
  13.1612336  38.9484187  53.1416540  13.7130644  39.1115808  53.9065625
  13.5018529  39.5388625  52.4696565   8.1376829  21.2959337  53.7438425
   8.2018155  22.1574168  53.3315822   8.0743949  20.6833338  53.0110783
   7.6129101  23.3682469  57.3911459   8.2401140  22.9859546  58.0048983
   6.7557020  23.1496671  57.7567151  18.0123210  33.7745444  58.9965194
  18.5563114  34.3875403  58.5020149  17.4310055  34.3325023  59.5132207
   4.3894644  25.1758898  43.3229814   4.6848085  24.2669577  43.2696867
   3.4882680  25.1546638  43.0010816  16.2980723  36.8966162  50.1280222
  16.1731862  36.0955902  49.6191167  16.9559814  37.3912356  49.6394192
   7.9188891  23.2514895  49.3057362   7.1975477  23.8650863  49.1664836
   8.7082147  23.7872660  49.2274008  10.7215205  20.5869321  55.5798014
  11.2449607  20.8331618  56.3424323  10.5027538  21.4189356  55.1601151
   6.1182486  22.8572996  43.4469139   5.7895192  21.9770375  43.2644245
   6.4721857  22.8020665  44.3345528   9.2324309  23.1445966  43.8144616
   9.5720381  23.6731887  43.0923225   9.6796429  23.4826372  44.5903183
  11.9267750  21.5283016  53.2647685  11.5864570  20.7290830  53.6668364
  11.2206756  21.8284727  52.6924518  12.5784222  18.6132329  51.7175008
  13.4010291  18.1392807  51.5953898  12.8222285  19.3922813  52.2173694
  11.2192456  21.6420587  42.0137909  11.9400819  22.0201840  41.5101626
  10.5957760  22.3609464  42.1172887  15.3623579  22.3465736  42.9496242
  15.5787193  23.2290374  42.6485070  14.8817646  21.9551950  42.2201884
  10.1022800  25.3051450  49.5266986   9.9567381  25.6191753  50.4191268
   9.6248004  25.9236350  48.9737885  11.9619183  22.2953998  49.5747876
  11.9480752  21.3995091  49.2380174  12.6791611  22.3024661  50.2086162
  13.8145314  22.7291338  51.6201003  13.5563092  23.6508408  51.6185334
  13.2830354  22.3321772  52.3101467   4.5768463  27.8456794  52.4654647
   4.0321931  28.6216602  52.5974922   5.4547812  28.1927598  52.3073769
  11.3656079  21.1768378  44.8435446  11.4871990  20.2485024  45.0426333
  11.0758122  21.1907064  43.9313761  14.2347270  18.8623288  47.9802166
  14.2568966  18.9262621  47.0254145  14.6515329  18.0227797  48.1742672
   5.3634484  26.9726690  55.3584804   4.6216220  27.1209326  55.9449435
   5.0427229  27.2334956  54.4951554  13.3078147  36.5142668  55.1565194
  13.6165274  36.2691815  56.0287894  14.1053629  36.7189307  54.6684064
  13.3298759  38.6680578  47.3870571  12.8903749  38.1756957  48.0803427
  14.0806876  38.1253546  47.1462646   5.8091098  34.8592119  47.3895199
   6.6349118  34.5595891  47.0093842   5.4585150  34.0899741  47.8384987
  10.7772631  34.2118587  49.4592872  10.1552641  33.5489292  49.1595100
  11.4477498  34.2379719  48.7766520   4.0099703  32.7778445  48.3484132
   3.1731611  32.3500620  48.1668134   3.9823349  32.9710889  49.2854924
  10.8497159  22.6900375  59.0525378  10.8985314  23.5662498  58.6703148
  11.3919673  22.1477768  58.4797022  21.3352004  33.2341498  58.3326516
  20.5447548  33.2165637  57.7931015  21.0985359  33.7729792  59.0875552
  21.4549879  30.0833965  55.6459244  21.5047884  29.9183972  56.5874767
  21.3463803  29.2161224  55.2557125  10.3386138  32.7622510  42.9351333
  10.4874259  33.4457975  42.2818006  11.1452582  32.7427601  43.4500789
  18.7453642  26.0664893  56.9618551  19.6463505  25.9271358  56.6702549
  18.8201616  26.2319348  57.9016728  13.0796447  23.4431748  55.8071737
  12.2099757  23.7365314  55.5354326  13.3155928  24.0272193  56.5279001
  22.9568076  32.5030906  55.8901266  22.6652885  32.8660887  56.7264727
  22.3440208  31.7897915  55.7114598  21.2055265  27.6263521  54.3581324
  21.6809386  27.8191167  53.5500175  20.2820830  27.6822707  54.1124707
   8.0938771  28.7887688  43.9412402   7.8484813  27.8850018  44.1392612
   8.2634686  28.7904839  42.9991880  15.7835481  19.6611365  53.3237157
  16.3017425  20.3972391  52.9983646  15.4290614  19.9675358  54.1583917
   7.3634419  24.5216046  41.4398563   6.6703664  24.5960401  40.7838599
   7.1186171  23.7576389  41.9620080  16.0348075  16.0811647  48.8438054
  16.3149829  15.4134836  49.4698481  16.8198682  16.2740743  48.3312718
  13.8381544  35.2570641  40.4063080  13.2655511  35.8760828  39.9533552
  14.4114337  35.8070003  40.9403002  19.9056934  24.5029281  52.5909629
  20.8574356  24.6027379  52.6121853  19.7360384  23.7107550  53.1007714
  17.9271313  21.5884864  52.7769030  17.3321245  21.8689877  52.0815519
  17.6421010  22.0778765  53.5485771  17.0578803  35.5407791  41.5371663
  17.9909477  35.4753353  41.7404538  16.9702016  36.3764058  41.0786195
  22.3845011  27.7235401  51.7051929  22.3521331  26.7851401  51.8911613
  22.9945635  27.8019437  50.9717754  14.2228342  26.5931454  37.7479133
  15.1687447  26.4637662  37.8167551  13.8442587  25.8546116  38.2248561
  22.5339500  24.5146444  51.7510212  22.0178548  23.7304901  51.5640141
  23.4179448  24.1865161  51.9156731  20.1950227  18.2587460  47.7106025
  19.9975048  17.9502548  48.5949357  20.8049932  18.9849099  47.8403955
  28.2021561  28.7851408  50.8457966  28.9324950  28.5236696  51.4065669
  27.5928507  28.0480129  50.8860034  26.2836858  26.9259270  51.4432417
  25.5570022  26.7915235  50.8348908  25.8684145  27.2336099  52.2489135
  14.1067035  30.6449200  59.2079790  15.0270044  30.8227799  59.4019836
  14.0716618  29.7005245  59.0559489  12.4071259  24.5181430  37.6834018
  11.5002715  24.2214543  37.7596732  12.6847240  24.2211248  36.8168304
   3.3249200  25.8387793  48.1333064   3.0051984  24.9853102  47.8407439
   2.7782628  26.0536372  48.8891032   7.1029107  28.5550234  51.8502571
   7.3215117  29.4867342  51.8690605   7.5154881  28.1958209  52.6357375
  14.0233325  19.0618320  43.8378259  13.2134053  18.7165405  44.2133505
  14.7117742  18.7525864  44.4265871  15.9523873  18.1396367  45.4602556
  16.5054912  18.5591820  46.1192579  16.1893960  17.2132115  45.5025512
  11.9756973  24.1283440  61.2405320  11.8753699  25.0777797  61.1717411
  11.7578515  23.8001679  60.3681390  11.1770044  21.3768365  37.8245997
  12.0389208  21.7023264  38.0841815  11.3620388  20.5899861  37.3119063
   3.1937460  29.4590705  50.1026186   2.5000931  29.0444658  49.5896140
   3.9410451  29.5011241  49.5059605  19.3302680  20.2496892  44.9681220
  18.7501349  20.9081696  44.5859273  19.0638613  19.4274236  44.5568638
  17.7806247  19.6501949  47.1702541  18.2806025  19.7618484  46.3616859
  18.4241855  19.3463002  47.8103349  11.8388243  27.5580579  60.0570382
  11.3555324  28.3580939  60.2634271  11.9249182  27.5688524  59.1037826
   5.1074202  29.3908959  47.9792201   5.0844890  29.4896646  47.0274084
   5.4174839  30.2374110  48.3009367   7.7661580  31.4485114  52.0938815
   8.7204834  31.4169056  52.0268747   7.5674104  30.9875738  52.9089041
   8.3560962  30.0186230  54.6609613   9.1753851  30.5130308  54.6844450
   8.6297770  29.1018198  54.6327181  18.1127558  22.4096982  44.0237569
  17.2253413  22.6946633  43.8057763  18.5281548  22.2490746  43.1764845
  21.4642095  22.4343503  47.7391908  22.2402485  22.9239956  48.0116525
  20.7390229  22.8601557  48.1963777  23.9014653  23.1471122  48.7965848
  24.4959144  22.9066858  48.0859157  23.9741237  22.4278253  49.4239385
   6.1211809  36.9904733  49.1109013   5.9866277  36.2305134  48.5447011
   5.7043871  37.7145633  48.6437802  17.2570772  32.1741657  38.1185589
  17.9606622  32.3791659  38.7343244  16.5333421  32.7418419  38.3834672
  18.0868582  27.9251518  44.2387859  18.0303784  28.3820069  43.3995491
  18.6396925  27.1642203  44.0610701  21.8973388  23.7141250  45.0637978
  21.6410322  23.3137886  45.8946186  21.2726256  24.4285044  44.9388117
  26.2085726  26.4537323  47.5709270  25.6485284  26.5230512  48.3440832
  25.6029229  26.2778308  46.8508766   9.2780935  37.8874050  49.3227456
   9.1613319  38.8319483  49.2206146   8.4573381  37.5847612  49.7113255
  19.1657469  32.6124186  40.1684049  20.0003073  32.1805384  39.9861523
  19.0041812  32.4406200  41.0960943  18.8203362  29.1156299  41.5340388
  18.7652165  28.9500571  40.5928832  18.1949417  29.8232332  41.6902578
   3.6095877  24.3524364  55.3601810   4.2554740  23.8423318  55.8489035
   3.4013028  25.0893045  55.9345235  16.1349269  31.4205211  60.8593951
  17.0040428  31.5945863  60.4980586  15.6556020  32.2399628  60.7369680
  12.1299487  18.6164408  41.1125706  12.1178157  19.5606248  41.2693977
  13.0222909  18.4334554  40.8185167  10.3035449  38.5402312  52.5383384
  11.2062696  38.5725922  52.8549879  10.0772819  37.6102763  52.5529720
  12.0589051  37.2933299  49.1993463  11.1084682  37.2935160  49.0857835
  12.3621537  36.5466033  48.6829498  15.9451606  15.2107185  45.3671643
  15.1784002  14.6565672  45.5128325  16.3562311  15.2829054  46.2285795
  27.7941744  43.1293837  50.2639225  28.4320154  43.0100584  49.5602565
  27.6762587  44.0774681  50.3227177  24.6031451  43.0821265  50.2000750
  24.2649962  42.9662330  49.3121285  25.4721219  42.6812430  50.1801756
  20.4618266  44.9356742  46.1897641  19.8983132  44.8446679  45.4213929
  20.3470661  44.1156646  46.6700134  25.0851234  44.2356117  56.1586956
  25.0739874  43.8408915  55.2867459  25.2471873  43.5022190  56.7520727
  18.0082698  46.4307933  49.0281861  18.8003990  46.0898758  48.6128161
  18.2479349  46.5402908  49.9484015  21.8058495  47.0193229  55.1066140
  21.5148361  47.9238860  54.9912806  22.4415479  47.0609756  55.8210209
  22.7314702  44.3970077  51.6967499  23.3278274  44.1726100  50.9824462
  22.7889673  43.6554823  52.2992947  26.7648380  46.7054644  52.1015933
  26.4649103  47.6079683  51.9931740  26.4199439  46.4386827  52.9537086
  20.2160861  43.1568441  48.1352638  19.2911358  43.0244655  48.3430329
  20.4645275  43.9362660  48.6322580  30.1645524  39.2237184  49.7813371
  29.2562401  39.1552593  49.4872132  30.1133120  39.7009129  50.6095196
  17.5769672  42.8001715  48.9696427  17.7062054  43.0536194  49.8835838
  16.8967124  43.3929423  48.6501082  21.7469160  53.4698965  45.0686901
  21.6693189  54.4206790  45.1475381  21.1430803  53.1244837  45.7261827
  24.2386389  40.6426830  57.7248268  23.4619724  41.2020750  57.7151132
  24.8776953  41.1283613  58.2463138  22.4932762  43.4512283  57.2866235
  23.2347446  43.9897327  57.0101058  21.7869747  44.0778572  57.4437787
  27.9688101  45.5941424  55.8838396  28.3771457  45.1523834  55.1393029
  27.2465363  45.0194051  56.1372589  24.3219171  40.5314031  53.2571953
  25.1680367  40.9553444  53.4006602  24.2617809  39.8747655  53.9510516
  28.2916916  46.1542614  49.6390685  27.6625779  46.3188329  48.9366753
  27.9042578  46.5684224  50.4101649  27.4718617  38.1918399  54.9153127
  27.2279549  38.9460460  54.3787403  27.7478547  38.5703747  55.7500374
  29.4257080  44.7357011  53.5930392  29.6373975  45.3788771  52.9164774
  29.3786828  43.9019328  53.1252323  27.0283309  37.3474832  50.4966965
  26.1667788  37.6456086  50.7883702  27.0545743  37.5645231  49.5647997
  20.7368959  45.4388504  49.8420534  21.3070316  45.8675772  49.2038018
  21.3277071  45.1571089  50.5404719  21.2294126  40.6051932  58.0881545
  20.5992786  41.2868212  58.3216942  21.1230213  40.4935013  57.1434683
  16.5239098  40.2723728  49.0147469  15.7338152  40.5281256  48.5387580
  17.0150345  41.0872065  49.1199510  30.5402908  47.6128967  51.7652750
  31.3620351  47.2109154  51.4835431  30.5365310  47.5097201  52.7168866
  24.3059511  47.1613010  53.9213460  24.3703943  47.6233417  54.7571632
  23.5970435  46.5310375  54.0495770  14.8076801  40.5254218  51.4462460
  15.0584839  41.4101228  51.7120036  15.3436349  40.3458820  50.6737552
  20.5074868  34.9072697  60.4506796  20.1141814  34.3538896  61.1254440
  21.3241009  35.2183276  60.8413313  17.4736926  46.3456556  44.3620366
  17.9861447  47.1399806  44.5125930  18.1259639  45.6482846  44.2953967
  19.2831811  49.4622312  46.4443119  19.4598439  50.3840277  46.2564103
  20.0788644  49.1480731  46.8737499  23.4242829  36.3230577  58.0427052
  24.1652543  36.9237730  57.9631515  23.6560752  35.5808214  57.4845095
  18.5684167  41.5086944  56.3205282  18.4537682  40.6072201  56.6212381
  17.7128685  41.7550641  55.9690099  25.6476005  49.4504684  57.9192783
  25.2039859  48.6641063  57.6013687  26.3093219  49.6383835  57.2536674
  20.4063126  50.9800486  52.4453461  20.9570551  50.8517549  51.6730455
  19.5674602  51.2795375  52.0948354  27.7457243  49.7307484  55.9474184
  27.7275718  50.5516365  55.4554453  28.6677163  49.6061559  56.1724325
  24.2030297  47.2451613  56.7897692  24.7358634  46.4839902  56.5597000
  23.6744378  46.9525265  57.5321847  27.3699992  32.3511679  52.3191334
  27.0264262  33.2413321  52.2430445  27.7378955  32.1613337  51.4560919
  15.4385843  44.6745210  45.1379936  16.2761065  45.0842218  44.9213644
  15.6164111  43.7344652  45.1080130  25.8362146  40.3980455  49.7145833
  24.9184707  40.6195402  49.5567521  26.2522289  40.4726765  48.8557540
  15.4612014  42.0135925  45.8090670  15.2636414  41.4205286  45.0841736
  14.9058678  41.7088135  46.5266609  26.9775309  40.9877916  54.5190536
  27.3324697  41.2149389  55.3785001  27.6247440  41.3196293  53.8967791
  21.6475476  47.3956877  47.4171869  22.4416075  46.9007198  47.2154444
  20.9367169  46.8674741  47.0539575  26.4670321  49.7774973  51.7684237
  26.5207343  50.3465909  52.5361953  25.5985102  49.9476858  51.4038274
  19.3468714  39.4792529  53.2508688  20.0191767  39.2709891  52.6021337
  18.5198501  39.2814615  52.8113920  25.2494286  36.1054470  55.2674349
  24.6022201  36.8044420  55.1738825  26.0195301  36.5390614  55.6350597
  28.6573084  46.3703322  58.3424902  28.5058590  46.1413874  57.4254986
  28.6477763  47.3273924  58.3556247  25.4258420  43.9435235  53.3271169
  26.3550480  44.0946395  53.1540136  25.0049450  44.0319256  52.4719815
  24.2246752  47.9685899  51.0969706  24.0857838  47.6004684  51.9695644
  23.4361348  48.4833539  50.9253664  19.7496211  42.7535132  54.0111125
  19.6116009  42.0215371  54.6122664  20.6601135  42.6644032  53.7295313
  22.3778512  42.4655091  53.4994805  23.0878130  41.8248284  53.4581423
  22.3347820  42.7167986  54.4220986  30.3665291  49.4022445  56.4201384
  30.3077837  48.7181665  55.7531967  30.7684809  50.1441435  55.9682010
  21.0907446  39.4520309  55.3190444  20.5544803  39.0011048  55.9712041
  20.5024154  39.5866218  54.5760909  19.3855989  56.2184359  49.2135103
  19.6252588  56.8502883  49.8914121  18.5425186  55.8672399  49.5000462
  30.3682698  47.3662029  54.6515364  29.4809477  47.0287950  54.7741763
  30.9381249  46.6345060  54.8884129  12.0211845  43.6986120  47.9758415
  12.7082885  43.3847850  47.3879430  11.8659974  44.6027485  47.7025667
  16.8246567  38.5876317  52.4043439  16.7404756  37.9801987  51.6693849
  16.0029274  39.0785335  52.4052935  23.8983851  52.0263481  51.6176607
  23.8254023  52.8318453  52.1295911  23.4561244  52.2255447  50.7924628
  26.3582535  51.9250315  53.7734766  27.0710507  52.5597780  53.7010667
  25.8672563  52.0214181  52.9574767  21.4094448  49.6744759  54.5940336
  22.1103908  50.3081242  54.7469731  20.9389563  50.0159490  53.8335976
  29.2095734  42.2289366  52.4192887  28.5567185  42.4765273  51.7645340
  29.5876114  41.4153504  52.0855364  25.2583307  42.9709177  58.9058924
  24.5823944  42.8703306  59.5761299  26.0810941  42.8148391  59.3694921
  17.0062166  49.2081114  51.5271439  17.5915603  48.4624802  51.6599343
  16.8087005  49.5185070  52.4108103  19.8600822  52.2432361  46.5433881
  19.1911197  52.7278489  46.0597922  19.7213691  52.4901581  47.4577260
  11.5979821  41.7786714  50.2475882  11.6363921  41.2450305  51.0413000
  11.0920114  41.2521919  49.6286859  24.0006090  54.2776105  53.1416540
  24.5524398  54.4407726  53.9065625  24.3412284  54.8680542  52.4696565
  18.9770583  36.6251254  53.7438425  19.0411910  37.4866085  53.3315822
  18.9137704  36.0125256  53.0110783  18.4522856  38.6974387  57.3911459
  19.0794895  38.3151464  58.0048983  17.5950775  38.4788589  57.7567151
  28.8516965  49.1037362  58.9965194  29.3956869  49.7167320  58.5020149
  28.2703809  49.6616940  59.5132207  15.2288399  40.5050816  43.3229814
  15.5241840  39.5961494  43.2696867  14.3276434  40.4838555  43.0010816
  27.1374477  52.2258080  50.1280222  27.0125617  51.4247820  49.6191167
  27.7953569  52.7204273  49.6394192  29.2009386  50.0267100  51.7559772
  28.2539721  49.9072451  51.6838099  29.5492159  49.1389598  51.8386034
  21.5608959  35.9161239  55.5798014  22.0843361  36.1623536  56.3424323
  21.3421293  36.7481274  55.1601151  29.8089941  50.6448375  49.0428997
  30.7336489  50.4391236  48.9053448  29.6405244  50.3964776  49.9518339
  22.7661504  36.8574934  53.2647685  22.4258325  36.0582747  53.6668364
  22.0600511  37.1576645  52.6924518  20.9416555  40.6343367  49.5266986
  20.7961136  40.9483670  50.4191268  20.4641759  41.2528268  48.9737885
  15.4162217  43.1748712  52.4654647  14.8715685  43.9508520  52.5974922
  16.2941567  43.5219516  52.3073769  16.2028239  42.3018608  55.3584804
  15.4609975  42.4501243  55.9449435  15.8820983  42.5626873  54.4951554
  24.1471902  51.8434586  55.1565194  24.4559028  51.5983733  56.0287894
  24.9447384  52.0481225  54.6684064  24.1692514  53.9972496  47.3870571
  23.7297504  53.5048874  48.0803427  24.9200631  53.4545463  47.1462646
  16.6484853  50.1884037  47.3895199  17.4742872  49.8887808  47.0093842
  16.2978905  49.4191659  47.8384987  14.8493458  48.1070363  48.3484132
  14.0125366  47.6792537  48.1668134  14.8217103  48.3002806  49.2854924
  21.6890913  38.0192293  59.0525378  21.7379069  38.8954416  58.6703148
  22.2313427  37.4769686  58.4797022  32.1745759  48.5633416  58.3326516
  31.3841303  48.5457555  57.7931015  31.9379113  49.1021710  59.0875552
  32.2943634  45.4125882  55.6459244  32.3441639  45.2475890  56.5874767
  32.1857557  44.5453141  55.2557125  29.5847396  41.3956810  56.9618551
  30.4857259  41.2563275  56.6702549  29.6595371  41.5611265  57.9016728
  23.9190202  38.7723665  55.8071737  23.0493511  39.0657231  55.5354326
  24.1549682  39.3564110  56.5279001  33.7961831  47.8322824  55.8901266
  33.5046639  48.1952805  56.7264727  33.1833962  47.1189832  55.7114598
  32.0449019  42.9555439  54.3581324  32.5203141  43.1483085  53.5500175
  31.1214584  43.0114624  54.1124707  26.6229236  34.9903282  53.3237157
  27.1411179  35.7264309  52.9983646  26.2684368  35.2967275  54.1583917
  26.8741830  31.4103565  48.8438054  27.1543583  30.7426754  49.4698481
  27.6592437  31.6032660  48.3312718  30.7450688  39.8321199  52.5909629
  31.6968111  39.9319296  52.6121853  30.5754138  39.0399467  53.1007714
  28.7665067  36.9176782  52.7769030  28.1715000  37.1981795  52.0815519
  28.4814764  37.4070683  53.5485771  33.3733254  39.8438362  51.7510212
  32.8572303  39.0596818  51.5640141  34.2573203  39.5157078  51.9156731
  24.9460789  45.9741117  59.2079790  25.8663799  46.1519716  59.4019836
  24.9110372  45.0297163  59.0559489  14.1642954  41.1679711  48.1333064
  13.8445739  40.3145019  47.8407439  13.6176382  41.3828289  48.8891032
  17.9422862  43.8842152  51.8502571  18.1608872  44.8159260  51.8690605
  18.3548636  43.5250127  52.6357375  22.8150727  39.4575358  61.2405320
  22.7147454  40.4069715  61.1717411  22.5972269  39.1293597  60.3681390
  14.0331214  44.7882623  50.1026186  13.3394686  44.3736575  49.5896140
  14.7804205  44.8303159  49.5059605  22.6781997  42.8872497  60.0570382
  22.1949079  43.6872857  60.2634271  22.7642936  42.8980442  59.1037826
  15.9467957  44.7200876  47.9792201  15.9238645  44.8188564  47.0274084
  16.2568593  45.5666027  48.3009367  18.6055335  46.7777031  52.0938815
  19.5598588  46.7460974  52.0268747  18.4067858  46.3167655  52.9089041
  19.1954717  45.3478148  54.6609613  20.0147606  45.8422226  54.6844450
  19.4691524  44.4310116  54.6327181  16.9605563  52.3196651  49.1109013
  16.8260031  51.5597052  48.5447011  16.5437626  53.0437551  48.6437802
  20.1174689  53.2165968  49.3227456  20.0007073  54.1611400  49.2206146
  19.2967136  52.9139530  49.7113255  14.4489631  39.6816281  55.3601810
  15.0948495  39.1715235  55.8489035  14.2406782  40.4184963  55.9345235
  26.9743023  46.7497129  60.8593951  27.8434183  46.9237781  60.4980586
  26.4949775  47.5691546  60.7369680  21.1429203  53.8694230  52.5383384
  22.0456450  53.9017840  52.8549879  20.9166573  52.9394681  52.5529720
  22.8982805  52.6225216  49.1993463  21.9478436  52.6227078  49.0857835
  23.2015292  51.8757951  48.6829498  18.7887122  36.8283898  59.4576824
  19.6518584  36.4720703  59.6680149  18.2152533  36.4897793  60.1452229
  38.6335499  58.4585755  50.2639225  39.2713909  58.3392502  49.5602565
  38.5156342  59.4066599  50.3227177  35.4425205  58.4113183  50.2000750
  35.1043717  58.2954248  49.3121285  36.3114973  58.0104348  50.1801756
  31.3012021  60.2648659  46.1897641  30.7376886  60.1738596  45.4213929
  31.1864416  59.4448564  46.6700134  35.9244988  59.5648035  56.1586956
  35.9133629  59.1700833  55.2867459  36.0865628  58.8314107  56.7520727
  28.8476453  61.7599851  49.0281861  29.6397745  61.4190676  48.6128161
  29.0873103  61.8694826  49.9484015  36.8811580  63.9319627  41.5012106
  36.2299559  64.5173707  41.1146120  37.6755942  64.4625822  41.5607143
  30.8067207  61.0208764  41.8999240  31.5798083  60.4737751  41.7612116
  31.1592606  61.8853013  42.1113702  32.6452249  62.3485146  55.1066140
  32.3542115  63.2530777  54.9912806  33.2809234  62.3901674  55.8210209
  33.5708456  59.7261995  51.6967499  34.1672028  59.5018017  50.9824462
  33.6283428  58.9846740  52.2992947  38.1876767  56.1837209  47.3392433
  38.9739857  55.7656632  46.9882850  38.4515472  57.0883301  47.5074082
  38.3586845  61.6210059  42.0381090  37.7232678  61.6944685  42.7501995
  38.0284251  62.2103658  41.3600169  43.5885195  56.1212442  48.2425412
  44.3210366  55.5511659  48.4763241  42.8324550  55.7334042  48.6831917
  35.2061314  58.5439683  45.4388754  34.8419521  58.0170304  46.1501676
  36.0628430  58.1538152  45.2655240  41.1110615  49.8334016  52.7020020
  40.7793940  50.7029427  52.4781235  40.5156228  49.5170300  53.3814051
  37.6042134  62.0346562  52.1015933  37.3042858  62.9371601  51.9931740
  37.2593194  61.7678745  52.9537086  31.0554616  58.4860359  48.1352638
  30.1305112  58.3536573  48.3430329  31.3039029  59.2654578  48.6322580
  41.0039278  54.5529102  49.7813371  40.0956156  54.4844511  49.4872132
  40.9526874  55.0301047  50.6095196  28.4163427  58.1293632  48.9696427
  28.5455808  58.3828111  49.8835838  27.7360878  58.7221340  48.6501082
  32.5862914  68.7990882  45.0686901  32.5086944  69.7498707  45.1475381
  31.9824558  68.4536755  45.7261827  35.0780144  55.9718748  57.7248268
  34.3013478  56.5312668  57.7151132  35.7170707  56.4575531  58.2463138
  42.8700925  52.7545541  51.5591244  42.2275305  53.0478074  50.9131039
  42.3655853  52.6398461  52.3644441  40.5241088  56.5008714  42.2477104
  41.4358944  56.7336100  42.0724801  40.0150735  57.0845758  41.6852182
  33.3326516  58.7804201  57.2866235  34.0741201  59.3189245  57.0101058
  32.6263502  59.4070490  57.4437787  38.8081856  60.9233342  55.8838396
  39.2165212  60.4815752  55.1393029  38.0859117  60.3485969  56.1372589
  35.1612926  55.8605948  53.2571953  36.0074121  56.2845362  53.4006602
  35.1011564  55.2039573  53.9510516  39.1310671  61.4834532  49.6390685
  38.5019533  61.6480246  48.9366753  38.7436333  61.8976142  50.4101649
  43.0099902  62.4188970  46.9935049  42.3250941  62.7987871  46.4432082
  43.0943752  63.0284297  47.7266997  38.3112371  53.5210317  54.9153127
  38.0673303  54.2752377  54.3787403  38.5872302  53.8995664  55.7500374
  40.2650834  60.0648929  53.5930392  40.4767729  60.7080689  52.9164774
  40.2180582  59.2311246  53.1252323  37.8677063  52.6766750  50.4966965
  37.0061542  52.9748003  50.7883702  37.8939498  52.8937149  49.5647997
  34.6838632  61.2208940  46.9040770  35.1476978  61.4996643  46.1145393
  34.4195431  60.3192385  46.7213861  31.5762714  60.7680422  49.8420534
  32.1464071  61.1967690  49.2038018  32.1670825  60.4863006  50.5404719
  33.6207519  57.3432093  43.7130335  34.3231562  57.7953136  44.1804262
  33.2888147  56.7015911  44.3410229  32.0687880  55.9343849  58.0881545
  31.4386541  56.6160130  58.3216942  31.9623968  55.8226931  57.1434683
  27.3632852  55.6015645  49.0147469  26.5731906  55.8573174  48.5387580
  27.8544100  56.4163983  49.1199510  41.3796662  62.9420884  51.7652750
  42.2014106  62.5401072  51.4835431  41.3759065  62.8389119  52.7168866
  29.3147598  55.9660225  45.9730946  28.5178761  56.0778919  46.4914441
  29.0873190  56.3046877  45.1071836  35.1453265  62.4904928  53.9213460
  35.2097698  62.9525335  54.7571632  34.4364189  61.8602293  54.0495770
  25.6470555  55.8546136  51.4462460  25.8978594  56.7393146  51.7120036
  26.1830104  55.6750737  50.6737552  49.4702655  59.2859633  48.1137721
  48.7166363  58.7167031  47.9581726  49.6050196  59.2522297  49.0608356
  34.8601283  64.1573035  43.7892441  34.7246958  65.0024571  44.2177288
  35.4011096  64.3592313  43.0258374  31.3468623  50.2364615  60.4506796
  30.9535568  49.6830814  61.1254440  32.1634763  50.5475194  60.8413313
  28.3130681  61.6748473  44.3620366  28.8255201  62.4691724  44.5125930
  28.9653393  60.9774764  44.2953967  30.1225565  64.7914230  46.4443119
  30.2992194  65.7132194  46.2564103  30.9182399  64.4772649  46.8737499
  34.2636584  51.6522494  58.0427052  35.0046297  52.2529647  57.9631515
  34.4954507  50.9100132  57.4845095  29.4077922  56.8378861  56.3205282
  29.2931437  55.9364119  56.6212381  28.5522440  57.0842558  55.9690099
  36.4869760  64.7796602  57.9192783  36.0433614  63.9932980  57.6013687
  37.1486973  64.9675752  57.2536674  31.2456881  66.3092403  52.4453461
  31.7964306  66.1809467  51.6730455  30.4068357  66.6087292  52.0948354
  38.5850998  65.0599402  55.9474184  38.5669473  65.8808283  55.4554453
  39.5070918  64.9353477  56.1724325  35.0424052  62.5743531  56.7897692
  35.5752389  61.8131819  56.5597000  34.5138133  62.2817183  57.5321847
  38.2093747  47.6803597  52.3191334  37.8658016  48.5705239  52.2430445
  38.5772709  47.4905255  51.4560919  26.2779597  60.0037128  45.1379936
  27.1154819  60.4134136  44.9213644  26.4557865  59.0636570  45.1080130
  38.1744029  57.6712208  40.8263769  37.6590653  58.4416813  41.0652157
  37.9021338  56.9977344  41.4496831  35.7591140  52.5161909  45.8849008
  34.9032737  52.1268759  45.7054646  36.1718092  52.5953870  45.0248793
  33.5333173  50.1346982  49.2906749  34.3986170  49.9389791  48.9312639
  33.6010682  49.9057334  50.2176106  43.1478304  60.4244563  42.7616943
  42.3707746  60.0855722  42.3172105  43.8269785  60.4297186  42.0871908
  37.9630333  55.5439300  42.6523550  37.6580468  55.8585450  43.5033694
  38.9160775  55.6220720  42.6950883  36.4076764  61.7029524  44.3016504
  35.8798126  60.9682283  43.9889742  35.9064267  62.4804200  44.0556473
  41.3869610  59.8978544  49.4183551  40.7293285  60.5877806  49.5063679
  42.1910010  60.2874976  49.7617537  40.1975069  58.2522917  47.4687492
  40.7106951  58.8852909  47.9709202  40.8476293  57.6524112  47.1030852
  37.4597444  68.2307241  40.2248164  36.7859142  68.5338938  40.8333121
  37.8463265  69.0336321  39.8753621  36.6755900  55.7272372  49.7145833
  35.7578461  55.9487319  49.5567521  37.0916044  55.8018683  48.8557540
  37.4590948  57.1263788  44.8448513  38.2062767  57.6385185  44.5355635
  37.7282537  56.8047841  45.7052907  35.7317598  59.6222329  41.8275468
  34.8228817  59.3381362  41.9247937  35.7612682  60.0421407  40.9678774
  40.9636865  63.2328918  45.5966635  40.5099193  62.3919828  45.6531826
  40.3330832  63.8690317  45.9341415  39.9069785  54.1620904  46.8267303
  39.1692542  53.6498291  47.1577545  40.1596559  53.7221286  46.0150579
  39.4069805  65.0705415  46.5316453  39.6992779  65.6310472  45.8128819
  39.9168425  65.3633976  47.2869612  26.3005768  57.3427843  45.8090670
  26.1030168  56.7497204  45.0841736  25.7452432  57.0380053  46.5266609
  34.2802492  57.2350949  47.9285263  34.3351102  56.2824786  47.8527739
  33.4693694  57.3910388  48.4126561  35.4293686  61.1631072  39.1663546
  34.9913116  60.4466931  38.7069183  36.1704127  61.3907187  38.6048637
  32.2194852  55.8528009  45.6875642  31.4062718  56.1522180  46.0940834
  32.7153846  55.4583698  46.4050124  34.3703430  65.8485766  47.6209906
  34.3279609  66.0746612  46.6918438  35.2866129  65.6149141  47.7695708
  37.8169064  56.3169834  54.5190536  38.1718451  56.5441307  55.3785001
  38.4641195  56.6488210  53.8967791  43.5466801  59.4388269  45.2239865
  43.4084699  59.6289865  44.2961054  43.1903019  60.2007652  45.6807916
  31.7108927  53.4246365  51.3036877  32.3508306  53.2835124  50.6059840
  30.8786457  53.1380878  50.9275479  43.5736180  61.5064796  50.2351136
  44.0072687  61.4140086  51.0834190  44.2867761  61.4822297  49.5971152
  32.4869231  62.7248795  47.4171869  33.2809829  62.2299115  47.2154444
  31.7760923  62.1966658  47.0539575  37.3064075  65.1066891  51.7684237
  37.3601097  65.6757827  52.5361953  36.4378857  65.2768776  51.4038274
  28.7951994  56.8691877  43.4931622  27.8649582  56.8076332  43.7101584
  28.8909466  56.3467830  42.6968263  30.1862469  54.8084447  53.2508688
  30.8585522  54.6001809  52.6021337  29.3592255  54.6106533  52.8113920
  44.4351730  61.5488497  52.7684022  44.6287620  62.4534308  53.0143296
  44.3352348  61.0895916  53.6022607  36.0888041  51.4346388  55.2674349
  35.4415956  52.1336337  55.1738825  36.8589056  51.8682532  55.6350597
  39.4966838  61.6995240  58.3424902  39.3452345  61.4705792  57.4254986
  39.4871518  62.6565841  58.3556247  36.2652175  59.2727153  53.3271169
  37.1944235  59.4238312  53.1540136  35.8443205  59.3611173  52.4719815
  35.0640507  63.2977817  51.0969706  34.9251592  62.9296601  51.9695644
  34.2755103  63.8125456  50.9253664  35.6588659  68.3986914  42.4395243
  35.8340414  67.9274957  43.2540865  34.9721447  69.0252680  42.6676503
  36.6145722  62.6759420  48.4858544  36.2795554  62.6360190  49.3816194
  36.1149668  62.0104136  48.0128954  30.5889966  58.0827050  54.0111125
  30.4509764  57.3507289  54.6122664  31.4994889  57.9935950  53.7295313
  39.5504913  60.0215454  38.7595604  38.9334084  59.2962282  38.6628656
  39.0821402  60.7824814  38.4162678  33.2172266  57.7947009  53.4994805
  33.9271885  57.1540201  53.4581423  33.1741575  58.0459904  54.4220986
  41.2059045  64.7314362  56.4201384  41.1471591  64.0473583  55.7531967
  41.6078564  65.4733352  55.9682010  31.9301200  54.7812227  55.3190444
  31.3938557  54.3302965  55.9712041  31.3417909  54.9158136  54.5760909
  41.2076452  62.6953946  54.6515364  40.3203231  62.3579868  54.7741763
  41.7775003  61.9636978  54.8884129  22.8605600  59.0278038  47.9758415
  23.5476639  58.7139768  47.3879430  22.7053728  59.9319403  47.7025667
  27.6640322  53.9168235  52.4043439  27.5798510  53.3093904  51.6693849
  26.8423028  54.4077253  52.4052935  34.7377606  67.3555399  51.6176607
  34.6647777  68.1610370  52.1295911  34.2954999  67.5547365  50.7924628
  34.5267385  66.5927169  45.1279428  33.7434907  67.1348849  45.2217653
  35.2260131  67.1101148  45.5273670  37.8364036  52.4021798  47.7713634
  38.3332735  51.6491761  47.4514704  37.0651017  52.4386115  47.2056843
  45.6893793  58.1062164  49.4131925  45.6783669  58.9886879  49.0425858
  44.8211172  57.7533715  49.2186462  37.1976289  67.2542233  53.7734766
  37.9104262  67.8889698  53.7010667  36.7066318  67.3506099  52.9574767
  38.9193816  61.1593485  45.3452057  37.9850095  61.2794948  45.1756762
  39.0970485  60.2565952  45.0812067  34.4199004  54.5439181  47.4985318
  34.0496792  53.9910222  48.1866224  34.9158097  53.9397315  46.9460318
  42.3066368  57.0010805  45.8802091  42.7726820  57.8338796  45.8062394
  42.7573868  56.5355786  46.5847350  32.2488203  65.0036676  54.5940336
  32.9497662  65.6373159  54.7469731  31.7783318  65.3451408  53.8335976
  40.3742599  63.3454626  42.8788243  40.6502443  63.2311221  43.7882117
  39.5047097  62.9472111  42.8400417  40.2783030  49.3691392  49.9192993
  39.3646110  49.5995619  50.0875200  40.7076132  49.4529836  50.7707025
  40.0489489  57.5581284  52.4192887  39.3960939  57.8057191  51.7645340
  40.4269869  56.7445422  52.0855364  37.0096663  67.5940977  46.5221057
  37.1919057  66.7762633  46.9848809  37.8329649  67.8108669  46.0845947
  37.3438828  66.5209162  43.7836106  37.8726595  66.0101617  43.1706268
  37.6067048  66.2051692  44.6481639  36.0977062  58.3001095  58.9058924
  35.4217699  58.1995224  59.5761299  36.9204696  58.1440308  59.3694921
  27.8455921  64.5373031  51.5271439  28.4309358  63.7916719  51.6599343
  27.6480759  64.8476988  52.4108103  30.6994576  67.5724279  46.5433881
  30.0304951  68.0570406  46.0597922  30.5607446  67.8193499  47.4577260
  22.4373576  57.1078631  50.2475882  22.4757675  56.5742222  51.0413000
  21.9313868  56.5813837  49.6286859  34.8399845  69.6068022  53.1416540
  35.3918153  69.7699644  53.9065625  35.1806038  70.1972460  52.4696565
  29.8164338  51.9543172  53.7438425  29.8805664  52.8158003  53.3315822
  29.7531458  51.3417174  53.0110783  29.2916610  54.0266305  57.3911459
  29.9188649  53.6443382  58.0048983  28.4344529  53.8080506  57.7567151
  39.6910719  64.4329280  58.9965194  40.2350623  65.0459238  58.5020149
  39.1097564  64.9908858  59.5132207  37.9768232  67.5549998  50.1280222
  37.8519371  66.7539738  49.6191167  38.6347323  68.0496191  49.6394192
  29.5976400  53.9098730  49.3057362  28.8762986  54.5234698  49.1664836
  30.3869656  54.4456495  49.2274008  40.0403140  65.3559018  51.7559772
  39.0933476  65.2364369  51.6838099  40.3885913  64.4681516  51.8386034
  32.4002714  51.2453157  55.5798014  32.9237116  51.4915453  56.3424323
  32.1815047  52.0773192  55.1601151  37.0449574  65.1511734  47.9564124
  36.8974536  64.2228441  48.1371694  37.8703067  65.1731825  47.4721200
  30.9111818  53.8029801  43.8144616  31.2507890  54.3315722  43.0923225
  31.3583938  54.1410207  44.5903183  40.6483696  65.9740293  49.0428997
  41.5730243  65.7683154  48.9053448  40.4798999  65.7256694  49.9518339
  33.6055259  52.1866852  53.2647685  33.2652079  51.3874665  53.6668364
  32.8994265  52.4868563  52.6924518  34.2571731  49.2716164  51.7175008
  35.0797800  48.7976642  51.5953898  34.5009794  50.0506648  52.2173694
  37.0411088  53.0049572  42.9496242  37.2574702  53.8874210  42.6485070
  36.5605155  52.6135785  42.2201884  31.7810309  55.9635285  49.5266986
  31.6354890  56.2775588  50.4191268  31.3035513  56.5820185  48.9737885
  33.6406692  52.9537833  49.5747876  33.6268261  52.0578926  49.2380174
  34.3579120  52.9608497  50.2086162  35.4932823  53.3875173  51.6201003
  35.2350601  54.3092244  51.6185334  34.9617863  52.9905608  52.3101467
  40.4379012  66.4925960  44.3991089  40.6115889  65.9272383  43.6464941
  40.9307903  67.2926855  44.2170578  26.2555972  58.5040629  52.4654647
  25.7109440  59.2800437  52.5974922  27.1335321  58.8511434  52.3073769
  33.0443588  51.8352213  44.8435446  33.1659499  50.9068859  45.0426333
  32.7545631  51.8490899  43.9313761  46.2918403  59.2562383  46.0181388
  46.7349549  58.5069708  45.6200512  45.4144913  59.2472520  45.6355120
  41.4254184  65.8092725  41.4987987  42.1205089  66.4299417  41.7175301
  41.7677334  64.9588076  41.7740365  27.0421993  57.6310526  55.3584804
  26.3003729  57.7793161  55.9449435  26.7214738  57.8918791  54.4951554
  43.3245607  63.2592430  43.0275318  43.8496931  63.5979703  42.3024638
  43.2367960  62.3239445  42.8438452  34.9865656  67.1726504  55.1565194
  35.2952782  66.9275651  56.0287894  35.7841138  67.3773142  54.6684064
  35.0086268  69.3264413  47.3870571  34.5691258  68.8340792  48.0803427
  35.7594385  68.7837381  47.1462646  27.4878607  65.5175954  47.3895199
  28.3136627  65.2179726  47.0093842  27.1372659  64.7483577  47.8384987
  32.4560140  64.8702422  49.4592872  31.8340150  64.2073128  49.1595100
  33.1265007  64.8963554  48.7766520  25.6887212  63.4362281  48.3484132
  24.8519120  63.0084455  48.1668134  25.6610858  63.6294724  49.2854924
  32.5284668  53.3484211  59.0525378  32.5772823  54.2246333  58.6703148
  33.0707182  52.8061604  58.4797022  43.0139513  63.8925334  58.3326516
  42.2235057  63.8749473  57.7931015  42.7772868  64.4313627  59.0875552
  43.1337388  60.7417800  55.6459244  43.1835393  60.5767808  56.5874767
  43.0251312  59.8745059  55.2557125  32.0173647  63.4206346  42.9351333
  32.1661768  64.1041810  42.2818006  32.8240091  63.4011436  43.4500789
  40.4241151  56.7248728  56.9618551  41.3251014  56.5855193  56.6702549
  40.4989125  56.8903183  57.9016728  34.7583956  54.1015583  55.8071737
  33.8887266  54.3949149  55.5354326  34.9943437  54.6856028  56.5279001
  44.6355585  63.1614742  55.8901266  44.3440394  63.5244722  56.7264727
  44.0227717  62.4481750  55.7114598  45.8351268  60.7267621  48.4103836
  46.6698159  61.1657426  48.5741396  45.9710396  60.2506275  47.5912082
  42.8842774  58.2847356  54.3581324  43.3596895  58.4775003  53.5500175
  41.9608339  58.3406542  54.1124707  29.7726280  59.4471523  43.9412402
  29.5272322  58.5433853  44.1392612  29.9422195  59.4488674  42.9991880
  37.4622990  50.3195200  53.3237157  37.9804934  51.0556227  52.9983646
  37.1078123  50.6259193  54.1583917  35.5169053  65.9154476  40.4063080
  34.9443020  66.5344663  39.9533552  36.0901846  66.4653838  40.9403002
  41.5844443  55.1613116  52.5909629  42.5361865  55.2611214  52.6121853
  41.4147893  54.3691385  53.1007714  39.6058822  52.2468700  52.7769030
  39.0108754  52.5273712  52.0815519  39.3208519  52.7362601  53.5485771
  38.7366312  66.1991626  41.5371663  39.6696986  66.1337188  41.7404538
  38.6489525  67.0347893  41.0786195  41.3654329  65.5157497  38.4975610
  41.2867961  65.1817360  39.3911368  42.1863996  66.0079265  38.4967083
  44.0632520  58.3819236  51.7051929  44.0308840  57.4435237  51.8911613
  44.6733144  58.4603273  50.9717754  44.2127009  55.1730279  51.7510212
  43.6966057  54.3888736  51.5640141  45.0966957  54.8448996  51.9156731
  49.8809070  59.4435243  50.8457966  50.6112459  59.1820531  51.4065669
  49.2716016  58.7063965  50.8860034  47.9624367  57.5843105  51.4432417
  47.2357531  57.4499070  50.8348908  47.5471654  57.8919934  52.2489135
  35.7854544  61.3033035  59.2079790  36.7057553  61.4811634  59.4019836
  35.7504127  60.3589081  59.0559489  25.0036709  56.4971629  48.1333064
  24.6839493  55.6436937  47.8407439  24.4570137  56.7120207  48.8891032
  28.7816616  59.2134070  51.8502571  29.0002626  60.1451178  51.8690605
  29.1942390  58.8542044  52.6357375  33.6544482  54.7867276  61.2405320
  33.5541208  55.7361633  61.1717411  33.4366024  54.4585514  60.3681390
  24.8724969  60.1174540  50.1026186  24.1788440  59.7028493  49.5896140
  25.6197960  60.1595077  49.5059605  41.0090189  50.9080727  44.9681220
  40.4288858  51.5665531  44.5859273  40.7426122  50.0858072  44.5568638
  39.4593756  50.3085785  47.1702541  39.9593534  50.4202319  46.3616859
  40.1029364  50.0046838  47.8103349  33.5175752  58.2164414  60.0570382
  33.0342833  59.0164775  60.2634271  33.6036691  58.2272359  59.1037826
  26.7861711  60.0492794  47.9792201  26.7632399  60.1480481  47.0274084
  27.0962348  60.8957945  48.3009367  29.4449089  62.1068949  52.0938815
  30.3992343  62.0752891  52.0268747  29.2461613  61.6459573  52.9089041
  30.0348471  60.6770065  54.6609613  30.8541360  61.1714144  54.6844450
  30.3085279  59.7602033  54.6327181  39.7915067  53.0680817  44.0237569
  38.9040922  53.3530468  43.8057763  40.2069057  52.9074581  43.1764845
  43.1429604  53.0927338  47.7391908  43.9189994  53.5823791  48.0116525
  42.4177738  53.5185393  48.1963777  45.5802162  53.8054958  48.7965848
  46.1746653  53.5650694  48.0859157  45.6528746  53.0862088  49.4239385
  27.7999318  67.6488569  49.1109013  27.6653786  66.8888970  48.5447011
  27.3831380  68.3729468  48.6437802  38.9358281  62.8325492  38.1185589
  39.6394131  63.0375495  38.7343244  38.2120930  63.4002254  38.3834672
  39.7656091  58.5835353  44.2387859  39.7091293  59.0403905  43.3995491
  40.3184434  57.8226038  44.0610701  43.5760897  54.3725085  45.0637978
  43.3197831  53.9721721  45.8946186  42.9513765  55.0868879  44.9388117
  47.8873235  57.1121159  47.5709270  47.3272793  57.1814348  48.3440832
  47.2816738  56.9362143  46.8508766  30.9568444  68.5457886  49.3227456
  30.8400828  69.4903318  49.2206146  30.1360890  68.2431447  49.7113255
  40.8444978  63.2708021  40.1684049  41.6790582  62.8389220  39.9861523
  40.6829321  63.0990035  41.0960943  40.4990871  59.7740135  41.5340388
  40.4439674  59.6084406  40.5928832  39.8736926  60.4816168  41.6902578
  25.2883385  55.0108199  55.3601810  25.9342249  54.5007153  55.8489035
  25.0800537  55.7476881  55.9345235  37.8136778  62.0789047  60.8593951
  38.6827937  62.2529699  60.4980586  37.3343529  62.8983463  60.7369680
  31.9822958  69.1986148  52.5383384  32.8850205  69.2309758  52.8549879
  31.7560328  68.2686598  52.5529720  33.7376560  67.9517134  49.1993463
  32.7872191  67.9518996  49.0857835  34.0409046  67.2049869  48.6829498
  29.6280876  52.1575816  59.4576824  30.4912338  51.8012621  59.6680149
  29.0546287  51.8189711  60.1452229  49.4729253  73.7877672  50.2639225
  50.1107663  73.6684420  49.5602565  49.3550096  74.7358516  50.3227177
  46.2818960  73.7405101  50.2000750  45.9437471  73.6246165  49.3121285
  47.1508728  73.3396266  50.1801756  44.4102211  75.0553913  51.6967499
  45.0065783  74.8309935  50.9824462  44.4677182  74.3138658  52.2992947
  43.9827239  72.5093348  39.5317690  44.2352760  71.9874869  38.7701153
  43.0451798  72.3459493  39.6344374  49.0270522  71.5129126  47.3392433
  49.8133611  71.0948549  46.9882850  49.2909226  72.4175219  47.5074082
  54.4278949  71.4504360  48.2425412  55.1604121  70.8803576  48.4763241
  53.6718305  71.0625960  48.6831917  43.7023528  74.4121454  41.7342065
  43.5859786  73.7366357  42.4023149  43.8125788  73.9253828  40.9174218
  46.0455069  73.8731601  45.4388754  45.6813276  73.3462222  46.1501676
  46.9022185  73.4830070  45.2655240  51.9504369  65.1625934  52.7020020
  51.6187694  66.0321345  52.4781235  51.3549983  64.8462218  53.3814051
  45.6860556  68.9021501  40.4350103  45.8534958  69.7701737  40.8020574
  45.4957725  69.0648782  39.5111392  41.8948370  73.8152276  48.1352638
  40.9698867  73.6828491  48.3430329  42.1432784  74.5946496  48.6322580
  51.8433033  69.8821020  49.7813371  50.9349910  69.8136428  49.4872132
  51.7920628  70.3592965  50.6095196  45.6649777  71.3579158  41.4196770
  45.5449402  71.8036209  42.2582250  44.9702365  71.7064476  40.8610308
  53.7094679  68.0837458  51.5591244  53.0669059  68.3769991  50.9131039
  53.2049608  67.9690379  52.3644441  51.3634843  71.8300631  42.2477104
  52.2752699  72.0628018  42.0724801  50.8544490  72.4137676  41.6852182
  48.7070818  68.0058667  50.4966965  47.8455297  68.3039921  50.7883702
  48.7333252  68.2229066  49.5647997  44.4601273  72.6724010  43.7130335
  45.1625316  73.1245054  44.1804262  44.1281901  72.0307829  44.3410229
  38.2026607  70.9307563  49.0147469  37.4125661  71.1865091  48.5387580
  38.6937854  71.7455901  49.1199510  40.1541352  71.2952142  45.9730946
  39.3572516  71.4070836  46.4914441  39.9266945  71.6338794  45.1071836
  36.4864310  71.1838053  51.4462460  36.7372348  72.0685063  51.7120036
  37.0223858  71.0042655  50.6737552  49.0487501  63.0095515  52.3191334
  48.7051771  63.8997156  52.2430445  49.4166464  62.8197172  51.4560919
  49.0137784  73.0004126  40.8263769  48.4984407  73.7708731  41.0652157
  48.7415092  72.3269262  41.4496831  46.5984895  67.8453827  45.8849008
  45.7426491  67.4560677  45.7054646  47.0111847  67.9245787  45.0248793
  48.1284042  65.3800170  50.2840567  47.6248837  65.3430305  49.4708373
  48.4214648  66.2892913  50.3437224  44.3726927  65.4638900  49.2906749
  45.2379924  65.2681708  48.9312639  44.4404436  65.2349251  50.2176106
  48.8024087  70.8731218  42.6523550  48.4974223  71.1877367  43.5033694
  49.7554529  70.9512638  42.6950883  41.9789247  67.6941108  46.6623116
  42.5532998  67.4716289  45.9296309  42.5660229  67.7629802  47.4151717
  42.3058834  69.7245569  40.6819001  41.4696146  70.0620255  41.0028276
  42.1663603  69.5894548  39.7446138  44.2811914  64.5682357  45.3898185
  43.6276327  64.2531374  44.7654800  44.2392388  63.9458097  46.1158008
  45.3923119  74.8501652  37.3051477  44.4850181  74.6190905  37.5042626
  45.8894151  74.0539271  37.4925459  47.5149655  71.0564290  49.7145833
  46.5972216  71.2779237  49.5567521  47.9309798  71.1310601  48.8557540
  48.2984702  72.4555706  44.8448513  49.0456521  72.9677103  44.5355635
  48.5676292  72.1339758  45.7052907  46.5711353  74.9514246  41.8275468
  45.6622572  74.6673279  41.9247937  46.6006436  75.3713325  40.9678774
  50.7463540  69.4912822  46.8267303  50.0086296  68.9790208  47.1577545
  50.9990313  69.0513204  46.0150579  50.8475167  62.2689074  47.4209072
  51.1534044  61.4086437  47.1334987  51.5727772  62.8606694  47.2208066
  37.1399523  72.6719761  45.8090670  36.9423923  72.0789121  45.0841736
  36.5846187  72.3671971  46.5266609  45.1196247  72.5642867  47.9285263
  45.1744856  71.6116703  47.8527739  44.3087449  72.7202306  48.4126561
  46.2687440  76.4922990  39.1663546  45.8306870  75.7758849  38.7069183
  47.0097881  76.7199105  38.6048637  43.0588607  71.1819927  45.6875642
  42.2456472  71.4814097  46.0940834  43.5547601  70.7875616  46.4050124
  42.5502681  68.7538282  51.3036877  43.1902061  68.6127041  50.6059840
  41.7180212  68.4672796  50.9275479  39.6345749  72.1983794  43.4931622
  38.7043337  72.1368250  43.7101584  39.7303221  71.6759747  42.6968263
  39.5531298  68.7238607  46.0809863  39.8138115  69.6383941  45.9719024
  40.3748470  68.2563050  46.2306476  41.0256223  70.1376364  53.2508688
  41.6979276  69.9293727  52.6021337  40.1986010  69.9398450  52.8113920
  41.4283720  73.4118967  54.0111125  41.2903518  72.6799206  54.6122664
  42.3388644  73.3227868  53.7295313  42.7694955  70.1104145  55.3190444
  42.2332312  69.6594883  55.9712041  42.1811663  70.2450053  54.5760909
  42.1797214  69.5692796  37.8816908  41.3026680  69.4481597  37.5179155
  42.6554967  68.7778874  37.6295797  38.5034076  69.2460152  52.4043439
  38.4192265  68.6385822  51.6693849  37.6816783  69.7369171  52.4052935
  48.6757790  67.7313716  47.7713634  49.1726490  66.9783678  47.4514704
  47.9044772  67.7678033  47.2056843  45.2592759  69.8731099  47.4985318
  44.8890546  69.3202139  48.1866224  45.7551851  69.2689232  46.9460318
  51.1176785  64.6983309  49.9192993  50.2039865  64.9287536  50.0875200
  51.5469886  64.7821753  50.7707025  40.6558092  67.2835090  53.7438425
  40.7199419  68.1449921  53.3315822  40.5925213  66.6709091  53.0110783
  36.9075908  71.1634651  43.3229814  37.2029349  70.2545330  43.2696867
  36.0063943  71.1422391  43.0010816  40.4370155  69.2390648  49.3057362
  39.7156740  69.8526616  49.1664836  41.2263410  69.7748413  49.2274008
  43.2396468  66.5745074  55.5798014  43.7630870  66.8207371  56.3424323
  43.0208802  67.4065109  55.1601151  38.6363749  68.8448749  43.4469139
  38.3076455  67.9646128  43.2644245  38.9903120  68.7896418  44.3345528
  41.7505572  69.1321719  43.8144616  42.0901645  69.6607640  43.0923225
  42.1977693  69.4702125  44.5903183  44.4449013  67.5158770  53.2647685
  44.1045834  66.7166583  53.6668364  43.7388020  67.8160480  52.6924518
  45.0965485  64.6008082  51.7175008  45.9191554  64.1268560  51.5953898
  45.3403549  65.3798566  52.2173694  43.7373720  67.6296340  42.0137909
  44.4582082  68.0077593  41.5101626  43.1139024  68.3485217  42.1172887
  47.8804842  68.3341489  42.9496242  48.0968457  69.2166127  42.6485070
  47.3998910  67.9427703  42.2201884  42.6204064  71.2927203  49.5266986
  42.4748645  71.6067506  50.4191268  42.1429267  71.9112103  48.9737885
  44.4800447  68.2829751  49.5747876  44.4662016  67.3870844  49.2380174
  45.1972875  68.2900414  50.2086162  46.3326577  68.7167091  51.6201003
  46.0744355  69.6384161  51.6185334  45.8011618  68.3197525  52.3101467
  43.8837343  67.1644131  44.8435446  44.0053254  66.2360777  45.0426333
  43.5939385  67.1782817  43.9313761  46.7528533  64.8499041  47.9802166
  46.7750230  64.9138374  47.0254145  47.1696592  64.0103550  48.1742672
  37.8815748  72.9602443  55.3584804  37.1397484  73.1085079  55.9449435
  37.5608492  73.2210709  54.4951554  48.3016744  65.6487118  53.3237157
  48.8198688  66.3848144  52.9983646  47.9471877  65.9551111  54.1583917
  39.8815682  70.5091799  41.4398563  39.1884927  70.5836154  40.7838599
  39.6367434  69.7452142  41.9620080  48.5529339  62.0687400  48.8438054
  48.8331092  61.4010589  49.4698481  49.3379946  62.2616496  48.3312718
  50.4452576  67.5760617  52.7769030  49.8502509  67.8565630  52.0815519
  50.1602273  68.0654518  53.5485771  46.7409606  72.5807207  37.7479133
  47.6868710  72.4513415  37.8167551  46.3623851  71.8421869  38.2248561
  52.7131490  64.2463213  47.7106025  52.5156311  63.9378301  48.5949357
  53.3231196  64.9724852  47.8403955  44.9252523  70.5057183  37.6834018
  44.0183978  70.2090296  37.7596732  45.2028504  70.2087001  36.8168304
  35.8430463  71.8263547  48.1333064  35.5233248  70.9728855  47.8407439
  35.2963891  72.0412125  48.8891032  46.5414589  65.0494073  43.8378259
  45.7315317  64.7041158  44.2133505  47.2299005  64.7401617  44.4265871
  48.4705137  64.1272120  45.4602556  49.0236175  64.5467573  46.1192579
  48.7075223  63.2007868  45.5025512  43.6951307  67.3644118  37.8245997
  44.5570471  67.6899017  38.0841815  43.8801652  66.5775614  37.3119063
  51.8483944  66.2372645  44.9681220  51.2682613  66.8957449  44.5859273
  51.5819877  65.4149989  44.5568638  50.2987510  65.6377702  47.1702541
  50.7987289  65.7494237  46.3616859  50.9423118  65.3338755  47.8103349
  50.6308822  68.3972735  44.0237569  49.7434677  68.6822386  43.8057763
  51.0462811  68.2366499  43.1764845  53.9823358  68.4219256  47.7391908
  54.7583748  68.9115709  48.0116525  53.2571492  68.8477310  48.1963777
  56.4195917  69.1346875  48.7965848  57.0140408  68.8942611  48.0859157
  56.4922500  68.4154006  49.4239385  50.6049846  73.9127271  44.2387859
  50.5485047  74.3695823  43.3995491  51.1578188  73.1517956  44.0610701
  54.4154652  69.7017003  45.0637978  54.1591586  69.3013639  45.8946186
  53.7907520  70.4160797  44.9388117  36.1277140  70.3400117  55.3601810
  36.7736004  69.8299071  55.8489035  35.9194291  71.0768798  55.9345235
  44.6480750  64.6040161  41.1125706  44.6359420  65.5482001  41.2693977
  45.5404172  64.4210307  40.8185167  48.4632870  61.1982938  45.3671643
  47.6965266  60.6441425  45.5128325  48.8743575  61.2704807  46.2285795
  16.9547991   4.8064042  36.9884532  17.5926401   4.6870789  36.2847872
  16.8368834   5.7544886  37.0472484  13.7637697   4.7591470  36.9246057
  13.4256209   4.6432535  36.0366592  14.6327466   4.3582635  36.9047063
   9.6224513   6.6126947  32.9142948   9.0589378   6.5216883  32.1459235
   9.5076908   5.7926851  33.3945440  14.2457480   5.9126322  42.8832262
  14.2346121   5.5179120  42.0112766  14.4078120   5.1792394  43.4766034
   7.1688945   8.1078138  35.7527168   7.9610237   7.7668963  35.3373467
   7.4085595   8.2173113  36.6729321  15.2024072  10.2797914  28.2257413
  14.5512052  10.8651995  27.8391426  15.9968435  10.8104109  28.2852450
   9.1279699   7.3687051  28.6244547   9.9010575   6.8216038  28.4857423
   9.4805098   8.2331301  28.8359008  10.9664742   8.6963434  41.8311446
  10.6754608   9.6009065  41.7158113  11.6021726   8.7379961  42.5455516
  11.8920948   6.0740282  38.4212806  12.4884521   5.8496305  37.7069769
  11.9495920   5.3325028  39.0238254  16.5089260   2.5315496  34.0637740
  17.2952349   2.1134919  33.7128157  16.7727964   3.4361588  34.2319388
  16.6799337   7.9688346  28.7626397  16.0445170   8.0422973  29.4747301
  16.3496743   8.5581945  28.0845476  21.9097687   2.4690729  34.9670719
  22.6422859   1.8989946  35.2008548  21.1537043   2.0812330  35.4077224
  11.1842266   5.4307823  28.4587372  11.0678524   4.7552727  29.1268456
  11.2944525   4.9440197  27.6419525  13.5273807   4.8917971  32.1634061
  13.1632014   4.3648592  32.8746982  14.3840922   4.5016440  31.9900546
  15.9254627   8.3824849  38.8261240  15.6255350   9.2849888  38.7177047
  15.5805686   8.1157032  39.6782393  19.3251770   0.9007389  36.5058677
  18.4168648   0.8322798  36.2117438  19.2739366   1.3779334  37.3340503
  13.1468514   2.3765528  28.1442076  13.0268140   2.8222579  28.9827557
  12.4521103   2.7250845  27.5855614  10.9075406  15.1469170  31.7932208
  10.8299436  16.0976995  31.8720688  10.3037050  14.8015042  32.4507134
  13.3992636   2.3197035  44.4493574  12.6225970   2.8790955  44.4396439
  14.0383199   2.8053818  44.9708445  21.1913417  -0.8976172  38.2836551
  20.5487797  -0.6043639  37.6376346  20.6868345  -1.0123252  39.0889748
  18.8453581   2.8487001  28.9722410  19.7571437   3.0814388  28.7970108
  18.3363228   3.4324045  28.4097489  11.6539009   5.1282488  44.0111541
  12.3953693   5.6667532  43.7346365  10.9475994   5.7548777  44.1683093
  17.1294348   7.2711629  42.6083703  17.5377704   6.8294039  41.8638335
  16.4071610   6.6964256  42.8617896  17.4523163   7.8312819  36.3635992
  16.8232025   7.9958534  35.6612060  17.0648825   8.2454429  37.1346956
  21.3312395   8.7667257  33.7180356  20.6463433   9.1466159  33.1677389
  21.4156244   9.3762584  34.4512303  16.6324864  -0.1311396  41.6398434
  16.3885795   0.6230664  41.1032709  16.9084794   0.2473952  42.4745681
  18.5863326   6.4127216  40.3175699  18.7980222   7.0558976  39.6410080
  18.5393075   5.5789533  39.8497629  13.0051125   7.5687228  33.6286077
  13.4689470   7.8474930  32.8390699  12.7407923   6.6670672  33.4459168
   9.8975206   7.1158709  36.5665840  10.4676563   7.5445977  35.9283325
  10.4883318   6.8341294  37.2650026  11.9420011   3.6910380  30.4375642
  12.6444054   4.1431424  30.9049568  11.6100639   3.0494199  31.0655535
  19.7009154   9.2899172  38.4898056  20.5226598   8.8879359  38.2080738
  19.6971557   9.1867406  39.4414172  13.4665758   8.8383215  40.6458767
  13.5310190   9.3003622  41.4816939  12.7576682   8.2080580  40.7741077
  27.7915147   5.6337920  34.8383028  27.0378856   5.0645318  34.6827032
  27.9262689   5.6000585  35.7853663  13.1813775  10.5051322  30.5137747
  13.0459450  11.3502858  30.9422595  13.7223588  10.7070600  29.7503681
   6.6343173   8.0226761  31.0865672   7.1467693   8.8170011  31.2371237
   7.2865886   7.3253051  31.0199274   8.4438058  11.1392517  33.1688426
   8.6204686  12.0610482  32.9809409   9.2394891  10.8250936  33.5982805
  14.8082252  11.1274889  44.6438089  14.3646106  10.3411268  44.3258994
  15.4699465  11.3154040  43.9781980   9.5669373  12.6570691  39.1698768
  10.1176798  12.5287754  38.3975762   8.7280849  12.9565580  38.8193661
  16.9063490  11.4077689  42.6719491  16.8881965  12.2286570  42.1799760
  17.8283410  11.2831764  42.8969632  13.3636544   8.9221818  43.5142999
  13.8964881   8.1610107  43.2842307  12.8350625   8.6295470  44.2567153
  16.4956522   4.0190495  27.5509076  15.9803145   4.7895100  27.7897463
  16.2233830   3.3455632  28.1742137  21.4690796   6.7722850  29.4862249
  20.6920239   6.4334010  29.0417411  22.1482277   6.7775473  28.8117214
  16.2842825   1.8917588  29.3768857  15.9792960   2.2063737  30.2279000
  17.2373267   1.9699007  29.4196190  14.7289257   8.0507811  31.0261811
  14.2010618   7.3160570  30.7135048  14.2276759   8.8282487  30.7801779
  19.7082103   6.2456831  36.1428857  19.0505777   6.9356093  36.2308986
  20.5122502   6.6353263  36.4862844  18.5187562   4.6001204  34.1932799
  19.0319443   5.2331196  34.6954509  19.1688785   4.0002400  33.8276159
  12.8741857   5.8688021  24.0296784  11.9668919   5.6377275  24.2287933
  13.3712889   5.0725640  24.2170766  15.7809936  14.5785528  26.9493470
  15.1071635  14.8817225  27.5578428  16.1675758  15.3814609  26.5998927
  14.9968392   2.0750660  36.4391140  14.0790954   2.2965607  36.2812828
  15.4128536   2.1496970  35.5802847  15.7803440   3.4742075  31.5693820
  16.5275259   3.9863473  31.2600942  16.0495030   3.1526128  32.4298213
  14.0530090   5.9700616  28.5520774  13.1441310   5.6859649  28.6493244
  14.0825174   6.3899695  27.6924081  19.2849358   9.5807206  32.3211942
  18.8311685   8.7398115  32.3777132  18.6543324  10.2168604  32.6586722
  18.2282277   0.5099192  33.5512609  17.4905034  -0.0023422  33.8822852
  18.4809051   0.0699573  32.7395886  17.7282297  11.4183702  33.2561760
  18.0205271  11.9788759  32.5374125  18.2380918  11.7112263  34.0114919
  12.6014984   3.5829237  34.6530570  12.6563594   2.6303073  34.5773046
  11.7906186   3.7388676  35.1371868  13.7506178   7.5109360  25.8908853
  13.3125608   6.7945219  25.4314490  14.4916619   7.7385475  25.3293944
  12.6915922  12.1964053  34.3455213  12.6492101  12.4224900  33.4163745
  13.6078621  11.9627428  34.4941014  16.1381556   2.6648121  41.2435842
  16.4930944   2.8919594  42.1030308  16.7853687   2.9966498  40.6213098
  21.8679293   5.7866557  31.9485171  21.7297192   5.9768153  31.0206361
  21.5115512   6.5485940  32.4053222  21.8948673   7.8543084  36.9596443
  22.3285179   7.7618373  37.8079497  22.6080253   7.8300584  36.3216459
  10.8081723   9.0727082  34.1417176  11.6022321   8.5777402  33.9399751
  10.0973415   8.5444945  33.7784881  15.6276567  11.4545178  38.4929543
  15.6813590  12.0236114  39.2607259  14.7591349  11.6247063  38.1283581
  22.7564222   7.8966784  39.4929328  22.9500112   8.8012595  39.7388603
  22.6564840   7.4374203  40.3267913  17.8179331   8.0473527  45.0670209
  17.6664837   7.8184079  44.1500293  17.8084010   9.0044129  45.0801554
  14.5864667   5.6205440  40.0516475  15.5156727   5.7716599  39.8785443
  14.1655697   5.7089461  39.1965122  13.3852999   9.6456104  37.8215013
  13.2464085   9.2774889  38.6940951  12.5967595  10.1603744  37.6498971
  13.9801151  14.7465201  29.1640549  14.1552907  14.2753244  29.9786172
  13.2933939  15.3730967  29.3921810  14.9358214   9.0237707  35.2103851
  14.6008047   8.9838477  36.1061501  14.4362160   8.3582423  34.7374261
  17.8717406   6.3693741  25.4840910  17.2546576   5.6440570  25.3873963
  17.4033894   7.1303102  25.1407985  11.5384759   4.1425296  40.2240111
  12.2484377   3.5018489  40.1826730  11.4954067   4.3938191  41.1466292
  19.5271537  11.0792650  43.1446691  19.4684084  10.3951870  42.4777274
  19.9291056  11.8211640  42.6927317   8.5462236  17.8954564  35.9380410
   8.7858834  18.5273088  36.6159428   7.7031433  17.5442604  36.2245769
  19.5288945   9.0432234  41.3760670  18.6415723   8.7058155  41.4987069
  20.0987496   8.3115265  41.6129436  13.0590098  13.7033686  38.3421914
  12.9860270  14.5088657  38.8541218  12.6167491  13.9025652  37.5169935
  12.8479878  12.9405456  31.8524735  12.0647400  13.4827136  31.9462960
  13.5472623  13.4579436  32.2518976  24.0106285   4.4540451  36.1377232
  23.9996161   5.3365166  35.7671165  23.1423665   4.1012002  35.9431769
  15.5188782  13.6020520  40.4980072  16.2316754  14.2367985  40.4255974
  15.0278810  13.6984386  39.6820074  17.2406309   7.5071773  32.0697364
  16.3062587   7.6273235  31.9002068  17.4182977   6.6044239  31.8057374
  20.6278860   3.3489092  32.6047398  21.0939312   4.1817084  32.5307701
  21.0786360   2.8834074  33.3092657  10.5700695  11.3514963  41.3185643
  11.2710155  11.9851446  41.4715037  10.0995810  11.6929695  40.5581282
  18.6955091   9.6932913  29.6033550  18.9714935   9.5789508  30.5127424
  17.8259590   9.2950398  29.5645723  18.3701981   3.9059571  39.1438193
  17.7173431   4.1535478  38.4890646  18.7482361   3.0923709  38.8100671
  15.3309155  13.9419264  33.2466364  15.5131550  13.1240920  33.7094116
  16.1542141  14.1586956  32.8091254  15.6651320  12.8687449  30.5081412
  16.1939087  12.3579904  29.8951574  15.9279540  12.5529979  31.3726945
  14.4189554   4.6479382  45.6304230  13.7430191   4.5473511  46.3006606
  15.2417188   4.4918596  46.0940228   6.1668413  10.8851319  38.2516746
   6.7521850  10.1395006  38.3844650   5.9693252  11.1955275  39.1353410
   9.0207068  13.9202566  33.2679188   8.3517444  14.4048694  32.7843228
   8.8819938  14.1671786  34.1822567  13.1612337  15.9546309  39.8661846
  13.7130645  16.1177931  40.6310932  13.5018530  16.5450747  39.1941871
  18.0123211  10.7807567  45.7210501  18.5563115  11.3937525  45.2265456
  17.4310056  11.3387145  46.2377514  16.2980724  13.9028285  36.8525529
  16.1731864  13.1018025  36.3436474  16.9559815  14.3974478  36.3639499
  18.3615633  11.7037305  38.4805079  17.4145968  11.5842656  38.4083405
  18.7098406  10.8159803  38.5631340  15.3662066  11.4990021  34.6809431
  15.2187028  10.5706729  34.8617001  16.1915559  11.5210112  34.1966506
  18.9696188  12.3218580  35.7674304  19.8942735  12.1161441  35.6298755
  18.8011491  12.0734981  36.6763645  18.7591504  12.8404247  31.1236395
  18.9328382  12.2750670  30.3710248  19.2520395  13.6405142  30.9415885
  24.6130895   5.6040670  32.7426695  25.0562041   4.8547996  32.3445818
  23.7357405   5.5950807  32.3600427  19.7466676  12.1571012  28.2233293
  20.4417581  12.7777705  28.4420608  20.0889827  11.3066363  28.4985671
  21.6458100   9.6070717  29.7520624  22.1709424   9.9457990  29.0269944
  21.5580452   8.6717733  29.5683759  13.3078148  13.5204791  41.8810501
  13.6165275  13.2753938  42.7533200  14.1053630  13.7251429  41.3929371
  13.3298760  15.6742701  34.1115877  12.8903751  15.1819079  34.8048734
  14.0806877  15.1315668  33.8707953   5.8091099  11.8654242  34.1140505
   6.6349119  11.5658013  33.7339149   5.4585151  11.0961864  34.5630294
  10.7772633  11.2180710  36.1838179  10.1552642  10.5551415  35.8840407
  11.4477499  11.2441842  35.5011827   4.0099704   9.7840568  35.0729439
   3.1731613   9.3562742  34.8913440   3.9823350   9.9773011  36.0100230
  21.3352006  10.2403621  45.0571822  20.5447549  10.2227760  44.5176322
  21.0985360  10.7791915  45.8120859  21.4549881   7.0896087  42.3704551
  21.5047886   6.9246095  43.3120073  21.3463804   6.2223346  41.9802431
  10.3386139   9.7684633  29.6596640  10.4874260  10.4520097  29.0063312
  11.1452583   9.7489723  30.1746095  18.7453643   3.0727015  43.6863857
  19.6463506   2.9333480  43.3947855  18.8201618   3.2381470  44.6262035
  22.9568078   9.5093029  42.6146572  22.6652886   9.8723009  43.4510033
  22.3440209   8.7960037  42.4359904  24.1563760   7.0745909  35.1349142
  24.9910651   7.5135713  35.2986703  24.2922889   6.5984562  34.3157388
  21.2055266   4.6325644  41.0826630  21.6809387   4.8253290  40.2745482
  20.2820831   4.6884829  40.8370014  13.8381545  12.2632764  27.1308387
  13.2655512  12.8822951  26.6778859  14.4114339  12.8132125  27.6648309
  19.9056935   1.5091404  39.3154936  20.8574358   1.6089501  39.3367160
  19.7360385   0.7169672  39.8253020  17.9271314  -1.4053013  39.5014337
  17.3321246  -1.1248000  38.8060825  17.6421011  -0.9159112  40.2731078
  17.0578805  12.5469914  28.2616969  17.9909478  12.4815475  28.4649845
  16.9702018  13.3826181  27.8031502  19.6866821  11.8635784  25.2220917
  19.6080453  11.5295648  26.1156675  20.5076488  12.3557552  25.2212389
  22.3845013   4.7297523  38.4297235  22.3521333   3.7913524  38.6156919
  22.9945636   4.8081560  37.6963060  14.2228343   3.5993576  24.4724440
  15.1687448   3.4699784  24.5412858  13.8442588   2.8608238  24.9493868
  22.5339501   1.5208567  38.4755519  22.0178550   0.7367023  38.2885448
  23.4179450   1.1927283  38.6402038  28.2021562   5.7913530  37.5703272
  28.9324951   5.5298818  38.1310976  27.5928508   5.0542252  37.6105340
  26.2836860   3.9321393  38.1677723  25.5570023   3.7977358  37.5594215
  25.8684146   4.2398221  38.9734442  14.1067036   7.6511322  45.9325096
  15.0270045   7.8289921  46.1265143  14.0716619   6.7067368  45.7804796
  11.8388244   4.5642702  46.7815688  11.3555326   5.3643062  46.9879577
  11.9249183   4.5750647  45.8283132   7.7661581   8.4547236  38.8184122
   8.7204835   8.4231179  38.7514054   7.5674105   7.9937860  39.6334348
   8.3560964   7.0248352  41.3854920   9.1753853   7.5192431  41.4089757
   8.6297771   6.1080321  41.3572487  18.1127560  -0.5840895  30.7482875
  17.2253415  -0.2991245  30.5303070  18.5281549  -0.7447132  29.9010152
  21.4642096  -0.5594374  34.4637214  22.2402486  -0.0697922  34.7361831
  20.7390230  -0.1336320  34.9209084  23.9014654   0.1533245  35.5211155
  24.4959145  -0.0871019  34.8104463  23.9741238  -0.5659624  36.1484691
   6.1211810  13.9966856  35.8354320   5.9866278  13.2367257  35.2692318
   5.7043872  14.7207756  35.3683109  17.2570773   9.1803779  24.8430895
  17.9606623   9.3853782  25.4588551  16.5333422   9.7480541  25.1079979
  18.0868583   4.9313641  30.9633165  18.0303785   5.3882192  30.1240798
  18.6396926   4.1704325  30.7856008  21.8973389   0.7203373  31.7883285
  21.6410324   0.3200008  32.6191493  21.2726257   1.4347166  31.6633424
  26.2085727   3.4599446  34.2954576  25.6485285   3.5292635  35.0686138
  25.6029231   3.2840430  33.5754073   9.2780936  14.8936173  36.0472763
   9.1613320  15.8381605  35.9451453   8.4573382  14.5909734  36.4358562
  19.1657471   9.6186309  26.8929355  20.0003075   9.1867507  26.7106830
  19.0041814   9.4468322  27.8206250  18.8203363   6.1218422  28.2585695
  18.7652167   5.9562693  27.3174139  18.1949418   6.8294455  28.4147884
  16.1349270   8.4267334  47.5839257  17.0040430   8.6007986  47.2225892
  15.6556021   9.2461751  47.4614987  10.3035450  15.5464435  39.2628691
  11.2062697  15.5788045  39.5795186  10.0772820  14.6164886  39.2775027
  12.0589052  14.2995421  35.9238770  11.1084683  14.2997283  35.8103142
  12.3621538  13.5528156  35.4074804  25.0851235  21.2418240  42.8832262
  25.0739876  20.8471038  42.0112766  25.2471874  20.5084312  43.4766034
  18.0082700  23.4370056  35.7527168  18.8003992  23.0960880  35.3373467
  18.2479350  23.5465031  36.6729321  19.9673454  22.6978969  28.6244547
  20.7404330  22.1507956  28.4857423  20.3198852  23.5623218  28.8359008
  21.8058496  24.0255351  41.8311446  21.5148362  24.9300982  41.7158113
  22.4415480  24.0671879  42.5455516  22.7314703  21.4032200  38.4212806
  23.3278275  21.1788222  37.7069769  22.7889674  20.6616945  39.0238254
  22.3039731  18.8571635  26.2562997  22.5565252  18.3353156  25.4946460
  21.3664290  18.6937781  26.3589680  32.7491441  17.7982647  34.9670719
  33.4816613  17.2281864  35.2008548  31.9930797  17.4104247  35.4077224
  30.2716862  11.5104221  39.4265327  29.9400186  12.3799632  39.2026542
  29.6762475  11.1940505  40.1059358  24.0073048  15.2499788  27.1595410
  24.1747450  16.1180024  27.5265881  23.8170217  15.4127070  26.2356699
  17.5769674  19.8063837  35.6941733  17.7062055  20.0598316  36.6081145
  16.8967125  20.3991545  35.3746388  24.2386391  17.6488953  44.4493574
  23.4619725  18.2082873  44.4396439  24.8776954  18.1345736  44.9708445
  32.0307171  14.4315745  38.2836551  31.3881552  14.7248279  37.6376346
  31.5262100  14.3168666  39.0889748  22.4932763  20.4574406  44.0111541
  23.2347447  20.9959450  43.7346365  21.7869749  21.0840695  44.1683093
  24.3219173  17.5376153  39.9817260  25.1680368  17.9615567  40.1251909
  24.2617810  16.8809778  40.6755823  27.4718618  15.1980522  41.6398434
  27.2279550  15.9522582  41.1032709  27.7478549  15.5765869  42.4745681
  27.0283310  14.3536955  37.2212271  26.1667789  14.6518208  37.5129009
  27.0545744  14.5707354  36.2893304  21.2294127  17.6114054  44.8126851
  20.5992787  18.2930335  45.0462248  21.1230215  17.4997136  43.8679990
  16.5239099  17.2785850  35.7392776  15.7338153  17.5343379  35.2632886
  17.0150347  18.0934188  35.8444816  18.4753845  17.6430429  32.6976252
  17.6785008  17.7549124  33.2159748  18.2479437  17.9817082  31.8317143
  24.3059512  24.1675133  40.6458767  24.3703945  24.6295540  41.4816939
  23.5970436  23.5372498  40.7741077  14.8076802  17.5316341  38.1707766
  15.0584841  18.4163351  38.4365342  15.3436351  17.3520942  37.3982858
  20.5074870  11.9134820  47.1752103  20.1141815  11.3601019  47.8499747
  21.3241010  12.2245398  47.5658620  17.4736927  23.3518678  31.0865672
  17.9861448  24.1461928  31.2371237  18.1259640  22.6544969  31.0199274
  23.4242831  13.3292699  44.7672359  24.1652544  13.9299852  44.6876822
  23.6560753  12.5870337  44.2090402  18.5684169  18.5149066  43.0450589
  18.4537684  17.6134324  43.3457688  17.7128686  18.7612763  42.6935405
  25.6476006  26.4566807  44.6438089  25.2039860  25.6703185  44.3258994
  26.3093220  26.6445957  43.9781980  20.4063127  27.9862608  39.1698768
  20.9570553  27.8579672  38.3975762  19.5674603  28.2857497  38.8193661
  24.2030299  24.2513736  43.5142999  24.7358635  23.4902024  43.2842307
  23.6744380  23.9587388  44.2567153  27.3699993   9.3573802  39.0436641
  27.0264263  10.2475444  38.9675751  27.7378956   9.1675460  38.1806226
  15.4385844  21.6807333  31.8625243  16.2761066  22.0904341  31.6458951
  15.6164112  20.7406775  31.8325437  24.9197387  14.1932114  32.6094314
  24.0638984  13.8038964  32.4299953  25.3324339  14.2724075  31.7494100
  26.4496534  11.7278457  37.0085874  25.9461329  11.6908592  36.1953679
  26.7427141  12.6371200  37.0682531  22.6939420  11.8117187  36.0152056
  23.5592417  11.6159996  35.6557945  22.7616929  11.5827539  36.9421412
  20.3001739  14.0419395  33.3868423  20.8745491  13.8194576  32.6541616
  20.8872721  14.1108089  34.1397024  20.6271326  16.0723856  27.4064308
  19.7908638  16.4098542  27.7273583  20.4876096  15.9372836  26.4691445
  22.6024407  10.9160644  32.1143492  21.9488819  10.6009661  31.4900107
  22.5604881  10.2936384  32.8403315  23.7135611  21.1979939  24.0296784
  22.8062673  20.9669192  24.2287933  24.2106643  20.4017558  24.2170766
  25.8362147  17.4042577  36.4391140  24.9184708  17.6257524  36.2812828
  26.2522291  17.4788888  35.5802847  29.1687659   8.6167361  34.1454378
  29.4746536   7.7564725  33.8580294  29.8940264   9.2084981  33.9453372
  15.4612015  19.0198048  32.5335976  15.2636415  18.4267409  31.8087043
  14.9058679  18.7150258  33.2511915  21.3801099  17.5298214  32.4120948
  20.5668964  17.8292385  32.8186141  21.8760093  17.1353903  33.1295431
  26.9775310  17.9940039  41.2435842  27.3324698  18.2211512  42.1030308
  27.6247442  18.3258415  40.6213098  20.8715174  15.1016570  38.0282183
  21.5114553  14.9605329  37.3305147  20.0392704  14.8151083  37.6520785
  17.9558241  18.5462082  30.2176928  17.0255829  18.4846537  30.4346891
  18.0515713  18.0238034  29.4213570  17.8743790  15.0716895  32.8055170
  18.1350607  15.9862228  32.6964331  18.6960962  14.6041337  32.9551783
  19.3468715  16.4854652  39.9753995  20.0191769  16.2772014  39.3266644
  18.5198502  16.2876738  39.5359227  25.2494287  13.1116593  41.9919656
  24.6022202  13.8106542  41.8984132  26.0195303  13.5452737  42.3595904
  28.6573085  23.3765445  45.0670209  28.5058592  23.1475997  44.1500293
  28.6477765  24.3336046  45.0801554  19.7496213  19.7597255  40.7356432
  19.6116010  19.0277494  41.3367971  20.6601136  19.6706155  40.4540620
  22.3778513  19.4717214  40.2240111  23.0878132  18.8310406  40.1826730
  22.3347821  19.7230109  41.1466292  21.0907447  16.4582432  42.0435751
  20.5544804  16.0073170  42.6957347  20.5024156  16.5928341  41.3006215
  19.3855991  33.2246481  35.9380410  19.6252589  33.8565005  36.6159428
  18.5425187  32.8734521  36.2245769  20.5009706  15.9171083  24.6062215
  19.6239172  15.7959884  24.2424461  20.9767459  15.1257162  24.3541103
  12.0211846  20.7048243  34.7003722  12.7082886  20.3909973  34.1124737
  11.8659975  21.6089608  34.4270973  16.8246568  15.5938440  39.1288745
  16.7404757  14.9864109  38.3939155  16.0029275  16.0847458  39.1298242
  26.9970282  14.0792003  34.4958940  27.4938982  13.3261965  34.1760011
  26.2257264  14.1156320  33.9302150  21.4094450  26.6806881  41.3185643
  22.1103909  27.3143364  41.4715037  20.9389565  27.0221613  40.5581282
  29.4389277  11.0461597  36.6438299  28.5252357  11.2765823  36.8120506
  29.8682379  11.1300041  37.4952332  29.2095736  19.2351489  39.1438193
  28.5567186  19.4827396  38.4890646  29.5876115  18.4215627  38.8100671
  25.2583309  19.9771300  45.6304230  24.5823946  19.8765429  46.3006606
  26.0810942  19.8210513  46.0940228  17.0062168  26.2143236  38.2516746
  17.5915604  25.4686924  38.3844650  16.8087006  26.5247193  39.1353410
  19.8600823  29.2494484  33.2679188  19.1911198  29.7340611  32.7843228
  19.7213693  29.4963704  34.1822567  11.5979822  18.7848836  36.9721189
  11.6363922  18.2512427  37.7658307  11.0920115  18.2584042  36.3532166
  18.9770585  13.6313377  40.4683731  19.0411911  14.4928208  40.0561129
  18.9137705  13.0187379  39.7356090  18.4522857  15.7036509  44.1156765
  19.0794896  15.3213587  44.7294290  17.5950776  15.4850711  44.4812458
  15.2288400  17.5112939  30.0475120  15.5241841  16.6023617  29.9942174
  14.3276436  17.4900678  29.7256123  18.7582647  15.5868935  36.0302669
  18.0369233  16.2004903  35.8910142  19.5475903  16.1226700  35.9519315
  21.5608961  12.9223362  42.3043321  22.0843362  13.1685658  43.0669630
  21.3421294  13.7543396  41.8846458  16.9576242  15.1927036  30.1714445
  16.6288948  14.3124415  29.9889551  17.3115612  15.1374705  31.0590835
  20.0718065  15.4800006  30.5389923  20.4114137  16.0085927  29.8168531
  20.5190185  15.8180412  31.3148490  22.7661506  13.8637057  39.9892991
  22.4258326  13.0644870  40.3913671  22.0600512  14.1638768  39.4169824
  23.4177977  10.9486369  38.4420314  24.2404047  10.4746847  38.3199204
  23.6616041  11.7276853  38.9419000  22.0586212  13.9774628  28.7383216
  22.7794574  14.3555880  28.2346933  21.4351516  14.6963504  28.8418194
  26.2017335  14.6819777  29.6741548  26.4180949  15.5644414  29.3730376
  25.7211402  14.2905990  28.9447190  22.8012939  14.6308038  36.2993182
  22.7874508  13.7349131  35.9625480  23.5185367  14.6378702  36.9331468
  24.6539070  15.0645378  38.3446310  24.3956848  15.9862449  38.3430640
  24.1224110  14.6675813  39.0346774  15.4162218  20.1810834  39.1899954
  14.8715686  20.9570642  39.3220228  16.2941568  20.5281639  39.0319075
  22.2049835  13.5122418  31.5680752  22.3265746  12.5839064  31.7671640
  21.9151877  13.5261104  30.6559068  25.0741025  11.1977329  34.7047472
  25.0962722  11.2616662  33.7499452  25.4909084  10.3581837  34.8987978
  16.2028240  19.3080730  42.0830111  15.4609976  19.4563366  42.6694741
  15.8820984  19.5688996  41.2196860  16.6484854  27.1946159  34.1140505
  17.4742874  26.8949931  33.7339149  16.2978906  26.4253782  34.5630294
  14.8493459  25.1132486  35.0729439  14.0125367  24.6854660  34.8913440
  14.8217104  25.3064929  36.0100230  21.6890915  15.0254415  45.7770685
  21.7379070  15.9016538  45.3948455  22.2313429  14.4831808  45.2042328
  21.1779894  25.0976551  29.6596640  21.3268014  25.7812015  29.0063312
  21.9846337  25.0781641  30.1746095  29.5847398  18.4018933  43.6863857
  30.4857260  18.2625398  43.3947855  29.6595372  18.5673388  44.6262035
  23.9190203  15.7785788  42.5317044  23.0493512  16.0719354  42.2599632
  24.1549683  16.3626233  43.2524307  32.0449020  19.9617561  41.0826630
  32.5203142  20.1545208  40.2745482  31.1214586  20.0176747  40.8370014
  18.9332527  21.1241728  30.6657709  18.6878569  20.2204058  30.8637919
  19.1028441  21.1258879  29.7237187  26.6229237  11.9965405  40.0482464
  27.1411181  12.7326432  39.7228953  26.2684370  12.3029398  40.8829223
  18.2028174  16.8570086  28.1643870  17.5097419  16.9314441  27.5083906
  17.9579926  16.0930430  28.6865387  26.8741831   8.4165687  35.5683361
  27.1543585   7.7488876  36.1943787  27.6592438   8.6094783  35.0558025
  30.7450689  16.8383321  39.3154936  31.6968112  16.9381419  39.3367160
  30.5754140  16.0461590  39.8253020  28.7665069  13.9238905  39.5014337
  28.1715001  14.2043917  38.8060825  28.4814765  14.4132805  40.2731078
  33.2238767  20.0589441  38.4297235  33.1915087  19.1205442  38.6156919
  33.8339391  20.1373478  37.6963060  33.3733256  16.8500484  38.4755519
  32.8572304  16.0658941  38.2885448  34.2573204  16.5219201  38.6402038
  31.0343982  10.5941500  34.4351331  30.8368804  10.2856588  35.3194663
  31.6443688  11.3203139  34.5649261  37.1230614  19.2613310  38.1677723
  36.3963778  19.1269275  37.5594215  36.7077901  19.5690139  38.9734442
  24.9460790  22.9803240  45.9325096  25.8663800  23.1581839  46.1265143
  24.9110374  22.0359285  45.7804796  23.2465015  16.8535470  24.4079325
  22.3396470  16.5568583  24.4842038  23.5240996  16.5565288  23.5413611
  14.1642955  18.1741834  34.8578371  13.8445740  17.3207142  34.5652745
  13.6176384  18.3890412  35.6136338  17.9422863  20.8904275  38.5747878
  18.1608873  21.8221383  38.5935911  18.3548637  20.5312249  39.3602681
  24.8627081  11.3972360  30.5623566  24.0527809  11.0519445  30.9378812
  25.5511498  11.0879904  31.1511178  26.7917629  10.4750407  32.1847863
  27.3448668  10.8945860  32.8437886  27.0287715   9.5486155  32.2270819
  22.8150728  16.4637481  47.9650627  22.7147455  17.4131837  47.8962718
  22.5972270  16.1355719  47.0926697  22.0163800  13.7122406  24.5491304
  22.8782964  14.0377304  24.8087121  22.2014144  12.9253901  24.0364370
  14.0331215  21.7944745  36.8271493  13.3394687  21.3798698  36.3141447
  14.7804206  21.8365282  36.2304912  28.6200003  11.9855990  33.8947847
  29.1199781  12.0972524  33.0862166  29.2635610  11.6817043  34.5348656
  22.6781998  19.8934619  46.7815688  22.1949080  20.6934979  46.9879577
  22.7642937  19.9042564  45.8283132  15.9467958  21.7262999  34.7037508
  15.9238646  21.8250686  33.7519391  16.2568594  22.5728150  35.0254674
  18.6055336  23.7839154  38.8184122  19.5598589  23.7523096  38.7514054
  18.4067859  23.3229778  39.6334348  19.1954718  22.3540270  41.3854920
  20.0147607  22.8484349  41.4089757  19.4691526  21.4372238  41.3572487
  32.3035850  14.7697543  34.4637214  33.0796240  15.2593996  34.7361831
  31.5783985  15.1955598  34.9209084  34.7408409  15.4825163  35.5211155
  35.3352900  15.2420899  34.8104463  34.8134993  14.7632293  36.1484691
  16.9605565  29.3258774  35.8354320  16.8260033  28.5659174  35.2692318
  16.5437627  30.0499673  35.3683109  32.7367144  16.0495290  31.7883285
  32.4804078  15.6491926  32.6191493  32.1120012  16.7639084  31.6633424
  37.0479482  18.7891363  34.2954576  36.4879040  18.8584553  35.0686138
  36.4422985  18.6132348  33.5754073  20.1174691  30.2228091  36.0472763
  20.0007075  31.1673523  35.9451453  19.2967137  29.9201652  36.4358562
  14.4489632  16.6878404  42.0847117  15.0948496  16.1777358  42.5734342
  14.2406783  17.4247086  42.6590542  26.9743024  23.7559251  47.5839257
  27.8434184  23.9299904  47.2225892  26.4949776  24.5753668  47.4614987
  22.9693243  10.9518449  27.8371013  22.9571913  11.8960289  27.9939284
  23.8616665  10.7688594  27.5430474  26.7845362   7.5461225  32.0916950
  26.0177758   6.9919712  32.2373632  27.1956067   7.6183094  32.9531101
  18.7887123  13.8346021  46.1822131  19.6518585  13.4782826  46.3925456
  18.2152534  13.4959916  46.8697535  46.7638744  51.9002075  42.8832262
  46.7527385  51.5054873  42.0112766  46.9259383  51.1668148  43.4766034
  39.6870209  54.0953891  35.7527168  40.4791500  53.7544716  35.3373467
  39.9266859  54.2048866  36.6729321  47.7205335  56.2673667  28.2257413
  47.0693315  56.8527748  27.8391426  48.5149698  56.7979862  28.2852450
  43.4846005  54.6839187  41.8311446  43.1935871  55.5884818  41.7158113
  44.1202989  54.7255714  42.5455516  44.4102212  52.0616035  38.4212806
  45.0065784  51.8372058  37.7069769  44.4677183  51.3200781  39.0238254
  48.4435890  54.3700602  38.8261240  48.1436613  55.2725641  38.7177047
  48.0986950  54.1032785  39.6782393  43.4256670  61.1344923  31.7932208
  43.3480700  62.0852748  31.8720688  42.8218314  60.7890795  32.4507134
  44.1720272  51.1158241  44.0111541  44.9134956  51.6543285  43.7346365
  43.4657258  51.7424530  44.1683093  49.6475612  53.2587382  42.6083703
  50.0558968  52.8169792  41.8638335  48.9252873  52.6840009  42.8617896
  53.8493658  54.7543010  33.7180356  53.1644696  55.1341912  33.1677389
  53.9337508  55.3638337  34.4512303  51.1044590  52.4002969  40.3175699
  51.3161485  53.0434729  39.6410080  51.0574338  51.5665286  39.8497629
  52.2190418  55.2774925  38.4898056  53.0407862  54.8755112  38.2080738
  52.2152821  55.1743159  39.4414172  45.9847021  54.8258968  40.6458767
  46.0491454  55.2879375  41.4816939  45.2757945  54.1956333  40.7741077
  60.3096411  51.6213673  34.8383028  59.5560119  51.0521071  34.6827032
  60.4443952  51.5876338  35.7853663  45.6995039  56.4927076  30.5137747
  45.5640714  57.3378611  30.9422595  46.2404851  56.6946353  29.7503681
  40.9619321  57.1268270  33.1688426  41.1385949  58.0486235  32.9809409
  41.7576154  56.8126689  33.5982805  47.3263515  57.1150642  44.6438089
  46.8827369  56.3287021  44.3258994  47.9880729  57.3029793  43.9781980
  42.0850636  58.6446444  39.1698768  42.6358062  58.5163507  38.3975762
  41.2462112  58.9441333  38.8193661  49.4244753  57.3953442  42.6719491
  49.4063229  58.2162323  42.1799760  50.3464673  57.2707517  42.8969632
  45.8817807  54.9097571  43.5142999  46.4146144  54.1485860  43.2842307
  45.3531889  54.6171223  44.2567153  53.9872059  52.7598603  29.4862249
  53.2101502  52.4209763  29.0417411  54.6663540  52.7651226  28.8117214
  47.2470520  54.0383564  31.0261811  46.7191882  53.3036324  30.7135048
  46.7458023  54.8158240  30.7801779  48.2991199  60.5661281  26.9493470
  47.6252898  60.8692978  27.5578428  48.6857021  61.3690362  26.5998927
  51.8030621  55.5682959  32.3211942  51.3492948  54.7273868  32.3777132
  51.1724588  56.2044357  32.6586722  50.2463560  57.4059455  33.2561760
  50.5386535  57.9664512  32.5374125  50.7562181  57.6988016  34.0114919
  45.2097186  58.1839806  34.3455213  45.1673364  58.4100653  33.4163745
  46.1259885  57.9503181  34.4941014  54.3860556  51.7742310  31.9485171
  54.2478455  51.9643906  31.0206361  54.0296775  52.5361693  32.4053222
  54.4129936  53.8418837  36.9596443  54.8466443  53.7494126  37.8079497
  55.1261517  53.8176337  36.3216459  43.3262986  55.0602835  34.1417176
  44.1203585  54.5653155  33.9399751  42.6154679  54.5320698  33.7784881
  48.1457831  57.4420931  38.4929543  48.1994853  58.0111867  39.2607259
  47.2772612  57.6122816  38.1283581  55.2745486  53.8842537  39.4929328
  55.4681376  54.7888348  39.7388603  55.1746104  53.4249956  40.3267913
  50.3360594  54.0349280  45.0670209  50.1846101  53.8059832  44.1500293
  50.3265274  54.9919882  45.0801554  47.1045931  51.6081193  40.0516475
  48.0337991  51.7592353  39.8785443  46.6836961  51.6965214  39.1965122
  45.9034262  55.6331857  37.8215013  45.7645348  55.2650642  38.6940951
  45.1148859  56.1479497  37.6498971  46.4982414  60.7340954  29.1640549
  46.6734170  60.2628997  29.9786172  45.8115202  61.3606720  29.3921810
  47.4539478  55.0113460  35.2103851  47.1189310  54.9714230  36.1061501
  46.9543423  54.3458176  34.7374261  44.0566022  50.1301049  40.2240111
  44.7665641  49.4894242  40.1826730  44.0135330  50.3813944  41.1466292
  52.0452801  57.0668403  43.1446691  51.9865347  56.3827623  42.4777274
  52.4472319  57.8087393  42.6927317  41.0643500  63.8830317  35.9380410
  41.3040098  64.5148841  36.6159428  40.2212696  63.5318357  36.2245769
  52.0470208  55.0307987  41.3760670  51.1596987  54.6933908  41.4987069
  52.6168759  54.2991018  41.6129436  45.5771362  59.6909439  38.3421914
  45.5041533  60.4964411  38.8541218  45.1348755  59.8901405  37.5169935
  45.3661141  58.9281209  31.8524735  44.5828663  59.4702889  31.9462960
  46.0653886  59.4455189  32.2518976  56.5287549  50.4416204  36.1377232
  56.5177425  51.3240919  35.7671165  55.6604928  50.0887755  35.9431769
  48.0370045  59.5896273  40.4980072  48.7498017  60.2243738  40.4255974
  47.5460074  59.6860139  39.6820074  49.7587572  53.4947526  32.0697364
  48.8243851  53.6148988  31.9002068  49.9364240  52.5919992  31.8057374
  53.1460123  49.3364845  32.6047398  53.6120576  50.1692837  32.5307701
  53.5967624  48.8709827  33.3092657  43.0881959  57.3390717  41.3185643
  43.7891418  57.9727199  41.4715037  42.6177074  57.6805448  40.5581282
  51.2136354  55.6808666  29.6033550  51.4896198  55.5665261  30.5127424
  50.3440853  55.2826151  29.5645723  47.8490418  59.9295017  33.2466364
  48.0312813  59.1116673  33.7094116  48.6723404  60.1462709  32.8091254
  48.1832584  58.8563202  30.5081412  48.7120350  58.3455657  29.8951574
  48.4460804  58.5405732  31.3726945  38.6849677  56.8727072  38.2516746
  39.2703113  56.1270759  38.3844650  38.4874515  57.1831028  39.1353410
  41.5388332  59.9078319  33.2679188  40.8698707  60.3924447  32.7843228
  41.4001202  60.1547539  34.1822567  45.6793600  61.9422062  39.8661846
  46.2311908  62.1053684  40.6310932  46.0199794  62.5326500  39.1941871
  50.5304475  56.7683320  45.7210501  51.0744379  57.3813278  45.2265456
  49.9491320  57.3262898  46.2377514  48.8161988  59.8904038  36.8525529
  48.6913127  59.0893778  36.3436474  49.4741079  60.3850231  36.3639499
  50.8796896  57.6913058  38.4805079  49.9327232  57.5718409  38.4083405
  51.2279669  56.8035556  38.5631340  47.8843329  57.4865774  34.6809431
  47.7368292  56.5582482  34.8617001  48.7096823  57.5085865  34.1966506
  51.4877451  58.3094333  35.7674304  52.4123999  58.1037194  35.6298755
  51.3192755  58.0610734  36.6763645  51.2772767  58.8280000  31.1236395
  51.4509645  58.2626423  30.3710248  51.7701659  59.6280895  30.9415885
  57.1312159  51.5916423  32.7426695  57.5743305  50.8423749  32.3445818
  56.2538669  51.5826560  32.3600427  52.2647940  58.1446765  28.2233293
  52.9598845  58.7653458  28.4420608  52.6071090  57.2942116  28.4985671
  54.1639363  55.5946470  29.7520624  54.6890687  55.9333743  29.0269944
  54.0761716  54.6593486  29.5683759  45.8259412  59.5080544  41.8810501
  46.1346538  59.2629691  42.7533200  46.6234894  59.7127183  41.3929371
  45.8480024  61.6618454  34.1115877  45.4085014  61.1694832  34.8048734
  46.5988141  61.1191421  33.8707953  38.3272363  57.8529995  34.1140505
  39.1530383  57.5533766  33.7339149  37.9766415  57.0837617  34.5630294
  43.2953896  57.2056463  36.1838179  42.6733905  56.5427168  35.8840407
  43.9658763  57.2317595  35.5011827  53.8533269  56.2279374  45.0571822
  53.0628813  56.2103513  44.5176322  53.6166624  56.7667668  45.8120859
  53.9731144  53.0771840  42.3704551  54.0229149  52.9121848  43.3120073
  53.8645068  52.2099099  41.9802431  42.8567403  55.7560386  29.6596640
  43.0055523  56.4395850  29.0063312  43.6633846  55.7365476  30.1746095
  51.2634907  49.0602768  43.6863857  52.1644769  48.9209233  43.3947855
  51.3382881  49.2257223  44.6262035  55.4749341  55.4968782  42.6146572
  55.1834149  55.8598762  43.4510033  54.8621472  54.7835790  42.4359904
  56.6745023  53.0621662  35.1349142  57.5091915  53.5011466  35.2986703
  56.8104152  52.5860315  34.3157388  53.7236529  50.6201397  41.0826630
  54.1990651  50.8129043  40.2745482  52.8002095  50.6760582  40.8370014
  46.3562808  58.2508517  27.1308387  45.7836776  58.8698704  26.6778859
  46.9295602  58.8007878  27.6648309  52.4238198  47.4967157  39.3154936
  53.3755621  47.5965254  39.3367160  52.2541649  46.7045425  39.8253020
  49.5760068  58.5345667  28.2616969  50.5090741  58.4691228  28.4649845
  49.4883281  59.3701934  27.8031502  52.2048085  57.8511537  25.2220917
  52.1261716  57.5171401  26.1156675  53.0257752  58.3433305  25.2212389
  54.9026276  50.7173276  38.4297235  54.8702596  49.7789277  38.6156919
  55.5126900  50.7957313  37.6963060  55.0520765  47.5084320  38.4755519
  54.5359813  46.7242776  38.2885448  55.9360713  47.1803036  38.6402038
  60.7202826  51.7789283  37.5703272  61.4506214  51.5174571  38.1310976
  60.1109771  51.0418005  37.6105340  58.8018123  49.9197146  38.1677723
  58.0751287  49.7853111  37.5594215  58.3865410  50.2273974  38.9734442
  46.6248299  53.6387075  45.9325096  47.5451309  53.8165674  46.1265143
  46.5897882  52.6943121  45.7804796  40.2842845  54.4422989  38.8184122
  41.2386098  54.4106932  38.7514054  40.0855368  53.9813613  39.6334348
  40.8742227  53.0124105  41.3854920  41.6935116  53.5068184  41.4089757
  41.1479035  52.0956074  41.3572487  56.4195918  46.1408998  35.5211155
  57.0140409  45.9004734  34.8104463  56.4922502  45.4216129  36.1484691
  38.6393074  59.9842609  35.8354320  38.5047542  59.2243010  35.2692318
  38.2225136  60.7083509  35.3683109  49.7752037  55.1679532  24.8430895
  50.4787887  55.3729535  25.4588551  49.0514685  55.7356294  25.1079979
  58.7266991  49.4475199  34.2954576  58.1666549  49.5168388  35.0686138
  58.1210494  49.2716183  33.5754073  41.7962200  60.8811926  36.0472763
  41.6794584  61.8257358  35.9451453  40.9754646  60.5785487  36.4358562
  51.6838734  55.6062062  26.8929355  52.5184338  55.1743260  26.7106830
  51.5223077  55.4344075  27.8206250  51.3384626  52.1094175  28.2585695
  51.2833430  51.9438446  27.3174139  50.7130682  52.8170208  28.4147884
  48.6530533  54.4143087  47.5839257  49.5221693  54.5883739  47.2225892
  48.1737285  55.2337504  47.4614987  42.8216714  61.5340188  39.2628691
  43.7243960  61.5663798  39.5795186  42.5954084  60.6040639  39.2775027
  44.5770316  60.2871174  35.9238770  43.6265947  60.2873036  35.8103142
  44.8802802  59.5403909  35.4074804  60.3123009  66.1231713  36.9884532
  60.9501419  66.0038460  36.2847872  60.1943852  67.0712557  37.0472484
  57.1212715  66.0759141  36.9246057  56.7831227  65.9600206  36.0366592
  57.9902484  65.6750306  36.9047063  52.9799531  67.9294617  32.9142948
  52.4164396  67.8384554  32.1459235  52.8651926  67.1094522  33.3945440
  57.6032498  67.2293993  42.8832262  57.5921139  66.8346791  42.0112766
  57.7653138  66.4960065  43.4766034  50.5263963  69.4245809  35.7527168
  51.3185255  69.0836634  35.3373467  50.7660613  69.5340784  36.6729321
  52.4854717  68.6854722  28.6244547  53.2585593  68.1383709  28.4857423
  52.8380116  69.5498971  28.8359008  54.3239760  70.0131104  41.8311446
  54.0329626  70.9176735  41.7158113  54.9596744  70.0547632  42.5455516
  55.2495966  67.3907953  38.4212806  55.8459539  67.1663975  37.7069769
  55.3070938  66.6492698  39.0238254  54.8220995  64.8447388  26.2562997
  55.0746516  64.3228910  25.4946460  53.8845554  64.6813534  26.3589680
  59.8664278  63.8483167  34.0637740  60.6527367  63.4302590  33.7128157
  60.1302982  64.7529259  34.2319388  65.2672705  63.7858400  34.9670719
  65.9997877  63.2157617  35.2008548  64.5112060  63.3980000  35.4077224
  54.5417284  66.7475494  28.4587372  54.4253542  66.0720398  29.1268456
  54.6519543  66.2607868  27.6419525  56.8848824  66.2085641  32.1634061
  56.5207032  65.6816262  32.8746982  57.7415940  65.8184110  31.9900546
  62.7898125  57.4979974  39.4265327  62.4581450  58.3675385  39.2026542
  62.1943739  57.1816258  40.1059358  56.5254311  61.2375541  27.1595410
  56.6928714  62.1055777  27.5265881  56.3351481  61.4002823  26.2356699
  52.7342126  66.1506317  34.8597944  51.8092623  66.0182531  35.0675636
  52.9826539  66.9300536  35.3567887  62.6826788  62.2175060  36.5058677
  61.7743666  62.1490469  36.2117438  62.6314384  62.6947005  37.3340503
  56.5043532  63.6933198  28.1442076  56.3843158  64.1390249  28.9827557
  55.8096121  64.0418516  27.5855614  50.0950937  65.7939590  35.6941733
  50.2243318  66.0474069  36.6081145  49.4148388  66.3867298  35.3746388
  56.7567654  63.6364706  44.4493574  55.9800988  64.1958626  44.4396439
  57.3958217  64.1221489  44.9708445  64.5488435  60.4191498  38.2836551
  63.9062815  60.7124032  37.6376346  64.0443363  60.3044419  39.0889748
  62.2028599  64.1654672  28.9722410  63.1146455  64.3982058  28.7970108
  61.6938246  64.7491716  28.4097489  55.0114027  66.4450159  44.0111541
  55.7528711  66.9835203  43.7346365  54.3051012  67.0716448  44.1683093
  56.8400436  63.5251906  39.9817260  57.6861631  63.9491320  40.1251909
  56.7799074  62.8685531  40.6755823  59.9899882  61.1856275  41.6398434
  59.7460813  61.9398335  41.1032709  60.2659812  61.5641622  42.4745681
  59.5464573  60.3412708  37.2212271  58.6849052  60.6393961  37.5129009
  59.5727008  60.5583107  36.2893304  56.3626143  68.8854898  33.6286077
  56.8264488  69.1642601  32.8390699  56.0982941  67.9838343  33.4459168
  53.2550224  68.4326380  36.5665840  53.8251581  68.8613648  35.9283325
  53.8458336  68.1508964  37.2650026  55.2995029  65.0078051  30.4375642
  56.0019072  65.4599094  30.9049568  54.9675657  64.3661869  31.0655535
  53.7475390  63.5989807  44.8126851  53.1174051  64.2806088  45.0462248
  53.6411478  63.4872889  43.8679990  49.0420363  63.2661603  35.7392776
  48.2519417  63.5219132  35.2632886  49.5331610  64.0809941  35.8444816
  50.9935108  63.6306182  32.6976252  50.1966271  63.7424877  33.2159748
  50.7660700  63.9692835  31.8317143  47.3258066  63.5192094  38.1707766
  47.5766104  64.4039104  38.4365342  47.8617614  63.3396695  37.3982858
  53.0256133  57.9010573  47.1752103  52.6323079  57.3476772  47.8499747
  53.8422273  58.2121152  47.5658620  49.9918191  69.3394431  31.0865672
  50.5042711  70.1337681  31.2371237  50.6440904  68.6420722  31.0199274
  51.8013075  72.4560188  33.1688426  51.9779704  73.3778152  32.9809409
  52.5969909  72.1418607  33.5982805  55.9424094  59.3168452  44.7672359
  56.6833807  59.9175605  44.6876822  56.1742017  58.5746090  44.2090402
  51.0865432  64.5024819  43.0450589  50.9718947  63.6010077  43.3457688
  50.2309950  64.7488516  42.6935405  56.7211562  70.2389489  43.5142999
  57.2539899  69.4777777  43.2842307  56.1925643  69.9463141  44.2567153
  59.8881257  55.3449555  39.0436641  59.5445526  56.2351197  38.9675751
  60.2560220  55.1551213  38.1806226  47.9567108  67.6683086  31.8625243
  48.7942330  68.0780094  31.6458951  48.1345375  66.7282528  31.8325437
  59.8531540  65.3358166  27.5509076  59.3378163  66.1062771  27.7897463
  59.5808848  64.6623302  28.1742137  57.4378651  60.1807867  32.6094314
  56.5820247  59.7914717  32.4299953  57.8505602  60.2599828  31.7494100
  58.9677797  57.7154210  37.0085874  58.4642593  57.6784345  36.1953679
  59.2608404  58.6246953  37.0682531  55.2120683  57.7992940  36.0152056
  56.0773680  57.6035749  35.6557945  55.2798192  57.5703292  36.9421412
  59.6417843  63.2085258  29.3768857  59.3367978  63.5231407  30.2279000
  60.5948285  63.2866678  29.4196190  52.8183002  60.0295148  33.3868423
  53.3926754  59.8070329  32.6541616  53.4053985  60.0983842  34.1397024
  53.1452589  62.0599609  27.4064308  52.3089902  62.3974295  27.7273583
  53.0057359  61.9248589  26.4691445  55.1205670  56.9036397  32.1143492
  54.4670082  56.5885414  31.4900107  55.0786144  56.2812137  32.8403315
  56.2316875  67.1855692  24.0296784  55.3243937  66.9544945  24.2287933
  56.7287907  66.3893311  24.2170766  58.3543410  63.3918330  36.4391140
  57.4365972  63.6133277  36.2812828  58.7703554  63.4664641  35.5802847
  59.1378458  64.7909746  31.5693820  59.8850277  65.3031143  31.2600942
  59.4070048  64.4693799  32.4298213  57.4105108  67.2868287  28.5520774
  56.5016328  67.0027320  28.6493244  57.4400192  67.7067365  27.6924081
  61.5857295  61.8266862  33.5512609  60.8480052  61.3144248  33.8822852
  61.8384069  61.3867244  32.7395886  61.6868923  54.6043114  34.1454378
  61.9927799  53.7440478  33.8580294  62.4121527  55.1960734  33.9453372
  47.9793279  65.0073801  32.5335976  47.7817678  64.4143162  31.8087043
  47.4239943  64.7026011  33.2511915  55.9590002  64.8996907  34.6530570
  56.0138612  63.9470744  34.5773046  55.1481204  65.0556346  35.1371868
  57.1081196  68.8277030  25.8908853  56.6700626  68.1112889  25.4314490
  57.8491637  69.0553145  25.3293944  53.8982362  63.5173967  32.4120948
  53.0850228  63.8168138  32.8186141  54.3941356  63.1229656  33.1295431
  59.4956574  63.9815792  41.2435842  59.8505962  64.2087265  42.1030308
  60.1428705  64.3134168  40.6213098  53.3896437  61.0892323  38.0282183
  54.0295816  60.9481082  37.3305147  52.5573968  60.8026836  37.6520785
  54.1656741  70.3894753  34.1417176  54.9597339  69.8945073  33.9399751
  53.4548433  69.8612616  33.7784881  50.4739504  64.5337835  30.2176928
  49.5437092  64.4722290  30.4346891  50.5696976  64.0113788  29.4213570
  50.3925053  61.0592648  32.8055170  50.6531871  61.9737981  32.6964331
  51.2142226  60.5917090  32.9551783  51.8649979  62.4730405  39.9753995
  52.5373032  62.2647767  39.3266644  51.0379765  62.2752491  39.5359227
  57.7675551  59.0992346  41.9919656  57.1203466  59.7982295  41.8984132
  58.5376566  59.5328490  42.3595904  57.9439685  66.9373111  40.0516475
  58.8731745  67.0884270  39.8785443  57.5230715  67.0257131  39.1965122
  52.2677476  65.7473008  40.7356432  52.1297274  65.0153247  41.3367971
  53.1782399  65.6581908  40.4540620  54.8959777  65.4592967  40.2240111
  55.6059395  64.8186159  40.1826730  54.8529085  65.7105862  41.1466292
  53.6088711  62.4458185  42.0435751  53.0726068  61.9948923  42.6957347
  53.0205419  62.5804094  41.3006215  53.0190970  61.9046836  24.6062215
  52.1420436  61.7835637  24.2424461  53.4948723  61.1132915  24.3541103
  44.5393110  66.6923996  34.7003722  45.2264150  66.3785726  34.1124737
  44.3841238  67.5965361  34.4270973  49.3427832  61.5814193  39.1288745
  49.2586021  60.9739862  38.3939155  48.5210538  62.0723211  39.1298242
  59.5151546  60.0667756  34.4958940  60.0120245  59.3137718  34.1760011
  58.7438527  60.1032073  33.9302150  56.0986515  62.2085139  34.2230625
  55.7284302  61.6556180  34.9111531  56.5945607  61.6043273  33.6705625
  61.9570541  57.0337350  36.6438299  61.0433620  57.2641577  36.8120506
  62.3863642  57.1175794  37.4952332  61.7276999  65.2227242  39.1438193
  61.0748449  65.4703149  38.4890646  62.1057379  64.4091380  38.8100671
  57.7764572  65.9647053  45.6304230  57.1005209  65.8641182  46.3006606
  58.5992206  65.8086266  46.0940228  49.5243431  72.2018989  38.2516746
  50.1096868  71.4562677  38.3844650  49.3268270  72.5122946  39.1353410
  44.1161086  64.7724589  36.9721189  44.1545185  64.2388180  37.7658307
  43.6101379  64.2459795  36.3532166  51.4951848  59.6189130  40.4683731
  51.5593175  60.4803961  40.0561129  51.4318968  59.0063132  39.7356090
  50.9704121  61.6912262  44.1156765  51.5976160  61.3089340  44.7294290
  50.1132040  61.4726464  44.4812458  47.7469663  63.4988692  30.0475120
  48.0423105  62.5899370  29.9942174  46.8457699  63.4776431  29.7256123
  51.2763910  61.5744688  36.0302669  50.5550496  62.1880656  35.8910142
  52.0657166  62.1102453  35.9519315  54.0790224  58.9099115  42.3043321
  54.6024626  59.1561411  43.0669630  53.8602557  59.7419149  41.8846458
  49.4757505  61.1802789  30.1714445  49.1470211  60.3000168  29.9889551
  49.8296876  61.1250458  31.0590835  52.5899328  61.4675759  30.5389923
  52.9295401  61.9961680  29.8168531  53.0371449  61.8056165  31.3148490
  55.2842769  59.8512810  39.9892991  54.9439589  59.0520623  40.3913671
  54.5781775  60.1514521  39.4169824  55.9359241  56.9362122  38.4420314
  56.7585310  56.4622600  38.3199204  56.1797304  57.7152606  38.9419000
  54.5767475  59.9650381  28.7383216  55.2975838  60.3431633  28.2346933
  53.9532779  60.6839257  28.8418194  58.7198598  60.6695530  29.6741548
  58.9362213  61.5520167  29.3730376  58.2392665  60.2781743  28.9447190
  53.4597820  63.6281243  36.2512293  53.3142400  63.9421546  37.1436574
  52.9823023  64.2466143  35.6983191  55.3194202  60.6183791  36.2993182
  55.3055771  59.7224884  35.9625480  56.0366631  60.6254455  36.9331468
  57.1720333  61.0521131  38.3446310  56.9138111  61.9738202  38.3430640
  56.6405374  60.6551566  39.0346774  47.9343482  66.1686587  39.1899954
  47.3896950  66.9446395  39.3220228  48.8122832  66.5157392  39.0319075
  54.7231098  59.4998171  31.5680752  54.8447010  58.5714817  31.7671640
  54.4333141  59.5136857  30.6559068  57.5922289  57.1853082  34.7047472
  57.6143986  57.2492415  33.7499452  58.0090348  56.3457590  34.8987978
  48.7209504  65.2956483  42.0830111  47.9791240  65.4439119  42.6694741
  48.4002248  65.5564749  41.2196860  49.1666117  73.1821912  34.1140505
  49.9924137  72.8825684  33.7339149  48.8160169  72.4129535  34.5630294
  47.3674722  71.1008239  35.0729439  46.5306631  70.6730413  34.8913440
  47.3398368  71.2940682  36.0100230  54.2072178  61.0130168  45.7770685
  54.2560333  61.8892291  45.3948455  54.7494692  60.4707562  45.2042328
  53.6961157  71.0852304  29.6596640  53.8449278  71.7687768  29.0063312
  54.5027601  71.0657394  30.1746095  62.1028661  64.3894686  43.6863857
  63.0038524  64.2501151  43.3947855  62.1776636  64.5549141  44.6262035
  56.4371466  61.7661541  42.5317044  55.5674776  62.0595107  42.2599632
  56.6730947  62.3501986  43.2524307  51.4513790  67.1117481  30.6657709
  51.2059832  66.2079811  30.8637919  51.6209705  67.1134632  29.7237187
  59.1410500  57.9841158  40.0482464  59.6592444  58.7202185  39.7228953
  58.7865633  58.2905151  40.8829223  50.7209438  62.8445839  28.1643870
  50.0278683  62.9190194  27.5083906  50.4761190  62.0806183  28.6865387
  59.3923094  54.4041440  35.5683361  59.6724848  53.7364629  36.1943787
  60.1773701  54.5970536  35.0558025  63.2631953  62.8259074  39.3154936
  64.2149376  62.9257172  39.3367160  63.0935403  62.0337343  39.8253020
  61.2846332  59.9114658  39.5014337  60.6896264  60.1919670  38.8060825
  60.9996029  60.4008558  40.2731078  57.5803361  64.9161247  24.4724440
  58.5262466  64.7867455  24.5412858  57.2017606  64.1775909  24.9493868
  65.8914519  62.8376237  38.4755519  65.3753568  62.0534694  38.2885448
  66.7754468  62.5094954  38.6402038  63.5525246  56.5817253  34.4351331
  63.3550067  56.2732341  35.3194663  64.1624952  57.3078892  34.5649261
  57.4642054  68.9678993  45.9325096  58.3845063  69.1457592  46.1265143
  57.4291637  68.0235038  45.7804796  55.7646279  62.8411223  24.4079325
  54.8577734  62.5444336  24.4842038  56.0422260  62.5441041  23.5413611
  46.6824219  64.1617587  34.8578371  46.3627003  63.3082895  34.5652745
  46.1357647  64.3766165  35.6136338  50.4604126  66.8780028  38.5747878
  50.6790136  67.8097136  38.5935911  50.8729900  66.5188002  39.3602681
  57.3808344  57.3848113  30.5623566  56.5709073  57.0395198  30.9378812
  58.0692761  57.0755657  31.1511178  59.3098893  56.4626160  32.1847863
  59.8629931  56.8821613  32.8437886  59.5468979  55.5361908  32.2270819
  55.3331992  62.4513234  47.9650627  55.2328719  63.4007590  47.8962718
  55.1153534  62.1231472  47.0926697  54.5345063  59.6998159  24.5491304
  55.3964227  60.0253057  24.8087121  54.7195407  58.9129654  24.0364370
  46.5512479  67.7820498  36.8271493  45.8575950  67.3674451  36.3141447
  47.2985470  67.8241035  36.2304912  62.6877700  58.5726685  31.6926527
  62.1076369  59.2311489  31.3104579  62.4213632  57.7504030  31.2813944
  61.1381266  57.9731743  33.8947847  61.6381044  58.0848277  33.0862166
  61.7816874  57.6692796  34.5348656  55.1963262  65.8810372  46.7815688
  54.7130344  66.6810732  46.9879577  55.2824201  65.8918317  45.8283132
  48.4649221  67.7138752  34.7037508  48.4419910  67.8126439  33.7519391
  48.7749858  68.5603903  35.0254674  51.1236599  69.7714907  38.8184122
  52.0779853  69.7398849  38.7514054  50.9249123  69.3105531  39.6334348
  51.7135981  68.3416023  41.3854920  52.5328870  68.8360102  41.4089757
  51.9872789  67.4247991  41.3572487  61.4702578  60.7326775  30.7482875
  60.5828433  61.0176426  30.5303070  61.8856567  60.5720539  29.9010152
  64.8217114  60.7573296  34.4637214  65.5977504  61.2469749  34.7361831
  64.0965248  61.1831351  34.9209084  67.2589672  61.4700916  35.5211155
  67.8534163  61.2296652  34.8104463  67.3316256  60.7508046  36.1484691
  61.4443601  66.2481311  30.9633165  61.3878803  66.7049863  30.1240798
  61.9971944  65.4871996  30.7856008  65.2548407  62.0371043  31.7883285
  64.9985342  61.6367679  32.6191493  64.6301275  62.7514837  31.6633424
  46.9670896  62.6754157  42.0847117  47.6129759  62.1653111  42.5734342
  46.7588047  63.4122839  42.6590542  55.4874506  56.9394202  27.8371013
  55.4753176  57.8836042  27.9939284  56.3797928  56.7564347  27.5430474
  59.3026626  53.5336978  32.0916950  58.5359021  52.9795465  32.2373632
  59.7137331  53.6058847  32.9531101  51.3068387  59.8221774  46.1822131
  52.1699848  59.4658579  46.3925456  50.7333797  59.4835669  46.8697535
  27.7941747  -2.8581918  23.7129839  28.4320157  -2.9775170  23.0093179
  27.6762590  -1.9101074  23.7717791  24.6031453  -2.9054490  23.6491363
  24.2649965  -3.0213425  22.7611898  25.4721221  -3.3063324  23.6292369
  25.0851236  -1.7519638  29.6077569  25.0739877  -2.1466840  28.7358073
  25.2471876  -2.4853565  30.2011340  18.0082701   0.4432178  22.4772475
  18.8003993   0.1023003  22.0618774  18.2479351   0.5527153  23.3974628
  21.8058497   1.0317474  28.5556753  21.5148363   1.9363105  28.4403419
  22.4415482   1.0734002  29.2700822  22.7314704  -1.5905678  25.1458112
  23.3278276  -1.8149655  24.4315075  22.7889676  -2.3320932  25.7483560
  26.7648382   0.7178889  25.5506547  26.4649106   1.6203928  25.4422354
  26.4199442   0.4511073  26.4027699  21.7469162   7.4823210  18.5177514
  21.6693192   8.4331035  18.5965995  21.1430806   7.1369082  19.1752441
  24.2386392  -5.3448925  31.1738881  23.4619726  -4.7855005  31.1641746
  24.8776955  -4.8592142  31.6953751  22.4932764  -2.5363471  30.7356848
  23.2347449  -1.9978427  30.4591672  21.7869750  -1.9097183  30.8928400
  27.9688104  -0.3934331  29.3329010  28.3771460  -0.8351920  28.5883642
  27.2465365  -0.9681703  29.5863202  28.2916919   0.1666860  23.0881298
  27.6625781   0.3312574  22.3857366  27.9042581   0.5808469  23.8592263
  32.1706151   1.1021298  20.4425662  31.4857189   1.4820199  19.8922696
  32.2550000   1.7116624  21.1757610  29.4257082  -1.2518743  27.0421006
  29.6373977  -0.6086984  26.3655387  29.3786830  -2.0856427  26.5742936
  23.8444880  -0.0958732  20.3531384  24.3083226   0.1828971  19.5636006
  23.5801679  -0.9975288  20.1704474  20.7368962  -0.5487251  23.2911147
  21.3070319  -0.1199982  22.6528631  21.3277073  -0.8304666  23.9895332
  30.5402910   1.6253212  25.2143363  31.3620354   1.2233399  24.9326045
  30.5365313   1.5221446  26.1659479  24.3059513   1.1737255  27.3704074
  24.3703946   1.6357663  28.2062245  23.5970437   0.5434620  27.4986383
  24.0207531   2.8405363  17.2383054  23.8853206   3.6856898  17.6667902
  24.5617344   3.0424640  16.4748988  19.2831813   3.4746557  19.8933732
  19.4598442   4.3964522  19.7054716  20.0788647   3.1604976  20.3228112
  25.6476008   3.4628929  31.3683396  25.2039862   2.6765308  31.0504301
  26.3093221   3.6508080  30.7027287  20.4063129   4.9924731  25.8944075
  20.9570554   4.8641794  25.1221068  19.5674605   5.2919620  25.5438967
  27.7457246   3.7431729  29.3964797  27.7275721   4.5640610  28.9045066
  28.6677166   3.6185804  29.6214938  24.2030300   1.2575859  30.2388306
  24.7358637   0.4964147  30.0087614  23.6744381   0.9649511  30.9812460
  32.3084552  -0.8923110  16.2107556  31.5313994  -1.2311950  15.7662718
  32.9876033  -0.8870486  15.5362521  30.5475858  -1.4189128  22.8674164
  29.8899533  -0.7289867  22.9554293  31.3516258  -1.0292696  23.2108150
  29.3581317  -3.0644756  20.9178106  29.8713199  -2.4314764  21.4199815
  30.0082541  -3.6643560  20.5521466  26.6203692   6.9139569  13.6738777
  25.9465390   7.2171265  14.2823735  27.0069513   7.7168649  13.3244234
  30.1243113   1.9161246  19.0457248  29.6705441   1.0752156  19.1022439
  29.4937080   2.5522644  19.3832029  28.5676053   3.7537742  19.9807067
  28.8599027   4.3142800  19.2619432  29.0774673   4.0466303  20.7360226
  23.4408740  -4.0816723  21.3775876  23.4957350  -5.0342887  21.3018353
  22.6299942  -3.9257284  21.8617175  23.5309678   4.5318094  21.0700520
  23.4885857   4.7578940  20.1409052  24.4472377   4.2981468  21.2186321
  32.7073049  -1.8779403  18.6730478  32.5690947  -1.6877807  17.7451667
  32.3509267  -1.1160020  19.1298529  32.7342428   0.1897124  23.6841749
  33.1678935   0.0972413  24.5324803  33.4474009   0.1654624  23.0461765
  21.6475479   1.4081123  20.8662482  22.4416077   0.9131443  20.6645057
  20.9367171   0.8798986  20.5030188  26.4670323   3.7899218  25.2174850
  26.5207345   4.3590154  25.9852566  25.5985105   3.9601103  24.8528887
  33.5957978   0.2320825  26.2174635  33.7893868   1.1366635  26.4633910
  33.4958596  -0.2271756  27.0513220  28.6573087   0.3827567  31.7915515
  28.5058593   0.1538119  30.8745599  28.6477766   1.3398169  31.8046860
  25.4258423  -2.0440520  26.7761782  26.3550483  -1.8929360  26.6030749
  25.0049453  -1.9556499  25.9210428  24.2246755   1.9810145  24.5460320
  24.0857840   1.6128929  25.4186258  23.4361351   2.4957784  24.3744277
  24.8194907   7.0819241  15.8885856  24.9946662   6.6107284  16.7031479
  24.1327695   7.7085007  16.1167117  25.7751970   1.3591747  21.9349157
  25.4401802   1.3192517  22.8306807  25.2755916   0.6936463  21.4619568
  22.3778514  -3.5220663  26.9485418  23.0878133  -4.1627471  26.9072037
  22.3347823  -3.2707769  27.8711599  30.3665293   3.4146690  29.8691997
  30.3077839   2.7305910  29.2022580  30.7684812   4.1565680  29.4172623
  19.3855992  10.2308604  22.6625716  19.6252590  10.8627128  23.3404735
  18.5425188   9.8796644  22.9491075  30.3682700   1.3786274  28.1005977
  29.4809479   1.0412196  28.2232376  30.9381251   0.6469305  28.3374742
  23.8983854   6.0387726  25.0667220  23.8254025   6.8442698  25.5786525
  23.4561247   6.2379692  24.2415242  23.6873633   5.2759496  18.5770042
  22.9041155   5.8181176  18.6708266  24.3866379   5.7933476  18.9764283
  26.3582537   5.9374560  27.2225379  27.0710510   6.5722025  27.1501280
  25.8672566   6.0338426  26.4065381  28.0800064  -0.1574187  18.7942671
  27.1456343  -0.0372725  18.6247375  28.2576733  -1.0601720  18.5302680
  21.4094451   3.6869004  28.0430950  22.1103910   4.3205487  28.1960344
  20.9389566   4.0283735  27.2826589  29.5348847   2.0286954  16.3278857
  29.8108691   1.9143548  17.2372731  28.6653345   1.6304438  16.2891030
  26.1702911   6.2773304  19.9711670  26.3525305   5.4594960  20.4339423
  26.9935897   6.4940997  19.5336560  26.5045076   5.2041490  17.2326719
  27.0332843   4.6933944  16.6196881  26.7673296   4.8884020  18.0972252
  25.2583310  -3.0166578  32.3549537  24.5823947  -3.1172448  33.0251912
  26.0810944  -3.1727364  32.8185534  17.0062169   3.2205359  24.9762052
  17.5915606   2.4749047  25.1089957  16.8087007   3.5309316  25.8598716
  19.8600824   6.2556606  19.9924495  19.1911199   6.7402734  19.5088535
  19.7213694   6.5025827  20.9067873  24.0006093   8.2900350  26.5907153
  24.5524401   8.4531971  27.3556238  24.3412286   8.8804788  25.9187178
  28.8516967   3.1161607  32.4455808  29.3956871   3.7291565  31.9510762
  28.2703812   3.6741186  32.9622821  27.1374480   6.2382325  23.5770835
  27.0125619   5.4372065  23.0681781  27.7953571   6.7328519  23.0884805
  29.2009388   4.0391345  25.2050385  28.2539724   3.9196697  25.1328712
  29.5492162   3.1513843  25.2876647  26.2055822   3.8344062  21.4054738
  26.0580784   2.9060769  21.5862308  27.0309315   3.8564152  20.9211813
  29.8089944   4.6572620  22.4919610  30.7336491   4.4515482  22.3544061
  29.6405247   4.4089021  23.4008952  29.5985260   5.1758288  17.8481702
  29.7722137   4.6104710  17.0955554  30.0914151   5.9759183  17.6661192
  30.5860432   4.4925052  14.9478600  31.2811337   5.1131745  15.1665915
  30.9283582   3.6420403  15.2230978  32.4851855   1.9424758  16.4765931
  33.0103179   2.2812030  15.7515251  32.3974208   1.0071773  16.2929065
  24.1471904   5.8558831  28.6055807  24.4559031   5.6107978  29.4778507
  24.9447386   6.0605470  28.1174678  24.1692516   8.0096741  20.8361184
  23.7297506   7.5173120  21.5294041  24.9200633   7.4669709  20.5953259
  16.6484855   4.2008282  20.8385812  17.4742875   3.9012054  20.4584456
  16.2978907   3.4315904  21.2875601  21.6166388   3.5534750  22.9083486
  20.9946398   2.8905455  22.6085714  22.2871255   3.5795882  22.2257133
  14.8493460   2.1194608  21.7974746  14.0125368   1.6916783  21.6158747
  14.8217106   2.3127052  22.7345537  32.1745761   2.5757661  31.7817129
  31.3841305   2.5581800  31.2421628  31.9379116   3.1145955  32.5366165
  32.2943636  -0.5749872  29.0949857  32.3441641  -0.7399865  30.0365380
  32.1857560  -1.4422613  28.7047738  33.7961833   1.8447069  29.3391879
  33.5046642   2.2077050  30.1755340  33.1833965   1.1314077  29.1605211
  34.9957516  -0.5900051  21.8594449  35.8304407  -0.1510247  22.0232009
  35.1316644  -1.0661398  21.0402695  27.8972560   4.8823954  14.9862276
  28.8303234   4.8169516  15.1895151  27.8095773   5.7180221  14.5276809
  24.9460792  -0.0134637  32.6570403  25.8663801   0.1643962  32.8510450
  24.9110375  -0.9578592  32.5050102  22.6782000  -3.1003258  33.5060995
  22.1949081  -2.3002898  33.7124884  22.7642939  -3.0895313  32.5528439
  18.6055337   0.7901277  25.5429429  19.5598591   0.7585219  25.4759360
  18.4067861   0.3291900  26.3579655  19.1954719  -0.6397607  28.1100226
  20.0147608  -0.1453529  28.1335064  19.4691527  -1.5565639  28.0817794
  16.9605566   6.3320896  22.5599627  16.8260034   5.5721297  21.9937625
  16.5437628   7.0561796  22.0928415  20.1174692   7.2290213  22.7718069
  20.0007076   8.1735646  22.6696759  19.2967138   6.9263775  23.1603868
  26.9743026   0.7621374  34.3084564  27.8434185   0.9362026  33.9471199
  26.4949777   1.5815791  34.1860293  21.1429206   7.8818475  25.9873998
  22.0456453   7.9142085  26.3040493  20.9166576   6.9518926  26.0020333
  22.8982808   6.6349462  22.6484076  21.9478439   6.6351323  22.5348449
  23.2015294   5.8882196  22.1320111  38.6335501  12.4710000  23.7129839
  39.2713911  12.3516747  23.0093179  38.5156344  13.4190844  23.7717791
  35.4425208  12.4237428  23.6491363  35.1043719  12.3078493  22.7611898
  36.3114976  12.0228593  23.6292369  31.3012023  14.2772905  19.6388254
  30.7376889  14.1862841  18.8704542  31.1864418  13.4572809  20.1190747
  35.9244991  13.5772280  29.6077569  35.9133631  13.1825078  28.7358073
  36.0865630  12.8438352  30.2011340  28.8476455  15.7724096  22.4772475
  29.6397747  15.4314921  22.0618774  29.0873106  15.8819071  23.3974628
  36.8811582  17.9443872  14.9502719  36.2299562  18.5297953  14.5636733
  37.6755945  18.4750067  15.0097757  30.8067209  15.0333009  15.3489854
  31.5798085  14.4861996  15.2102729  31.1592608  15.8977259  15.5604315
  33.5708459  13.7386240  25.1458112  34.1672031  13.5142263  24.4315075
  33.6283430  12.9970986  25.7483560  33.1433487  11.1925675  12.9808303
  33.3959008  10.6707197  12.2191766  32.2058046  11.0291821  13.0834987
  38.1876770  10.1961454  20.7883047  38.9739859   9.7780877  20.4373464
  38.4515474  11.1007546  20.9564695  38.3586847  15.6334304  15.4871703
  37.7232680  15.7068931  16.1992608  38.0284254  16.2227903  14.8090783
  43.5885197  10.1336687  21.6916025  44.3210369   9.5635904  21.9253855
  42.8324553   9.7458287  22.1322531  32.8629776  13.0953781  15.1832678
  32.7466034  12.4198685  15.8513763  32.9732036  12.6086155  14.3664831
  35.2061317  12.5563929  18.8879368  34.8419524  12.0294550  19.5992289
  36.0628433  12.1662398  18.7145853  41.1110617   3.8458261  26.1510634
  40.7793942   4.7153672  25.9271849  40.5156231   3.5294545  26.8304664
  34.8466804   7.5853828  13.8840716  35.0141206   8.4534065  14.2511187
  34.6563973   7.7481110  12.9602005  37.6042137  16.0470807  25.5506547
  37.3042860  16.9495846  25.4422354  37.2593196  15.7802990  26.4027699
  31.0554618  12.4984604  21.5843251  30.1305115  12.3660818  21.7920943
  31.3039032  13.2778823  22.0813193  41.0039281   8.5653347  23.2303984
  40.0956158   8.4968756  22.9362745  40.9526877   9.0425292  24.0585809
  34.8256025  10.0411486  14.8687383  34.7055650  10.4868536  15.7072863
  34.1308613  10.3896803  14.3100921  28.4163429  12.1417878  22.4187040
  28.5455811  12.3952356  23.3326452  27.7360881  12.7345586  22.0991695
  35.0780146   9.9842993  31.1738881  34.3013481  10.5436913  31.1641746
  35.7170710  10.4699776  31.6953751  42.8700927   6.7669786  25.0081858
  42.2275307   7.0602319  24.3621652  42.3655856   6.6522706  25.8135054
  40.5241091  10.5132959  15.6967717  41.4358947  10.7460346  15.5215415
  40.0150738  11.0970003  15.1342796  33.3326519  12.7928446  30.7356848
  34.0741203  13.3313490  30.4591672  32.6263504  13.4194735  30.8928400
  38.8081858  14.9357587  29.3329010  39.2165214  14.4939997  28.5883642
  38.0859120  14.3610214  29.5863202  35.1612928   9.8730194  26.7062567
  36.0074124  10.2969607  26.8497216  35.1011566   9.2163818  27.4001130
  39.1310673  15.4958777  23.0881298  38.5019536  15.6604491  22.3857366
  38.7436335  15.9100387  23.8592263  43.0099905  16.4313215  20.4425662
  42.3250943  16.8112117  19.8922696  43.0943754  17.0408542  21.1757610
  38.3112374   7.5334562  28.3643740  38.0673306   8.2876622  27.8278016
  38.5872304   7.9119909  29.1990987  40.2650837  14.0773174  27.0421006
  40.4767732  14.7204934  26.3655387  40.2180585  13.2435491  26.5742936
  37.8677066   6.6890995  23.9457578  37.0061545   6.9872248  24.2374315
  37.8939500   6.9061394  23.0138611  34.6838635  15.2333185  20.3531384
  35.1476981  15.5120888  19.5636006  34.4195433  14.3316630  20.1704474
  31.5762716  14.7804667  23.2911147  32.1464073  15.2091935  22.6528631
  32.1670828  14.4987252  23.9895332  33.6207521  11.3556338  17.1620949
  34.3231564  11.8077381  17.6294875  33.2888150  10.7140157  17.7900842
  32.0687883   9.9468094  31.5372158  31.4386543  10.6284375  31.7707555
  31.9623970   9.8351176  30.5925296  27.3632855   9.6139890  22.4638082
  26.5731909   9.8697419  21.9878193  27.8544102  10.4288228  22.5690123
  41.3796665  16.9545130  25.2143363  42.2014108  16.5525317  24.9326045
  41.3759067  16.8513364  26.1659479  29.3147600   9.9784470  19.4221559
  28.5178764  10.0903164  19.9405055  29.0873193  10.3171122  18.5562450
  25.6470558   9.8670381  24.8953073  25.8978596  10.7517391  25.1610649
  26.1830106   9.6874982  24.1228165  49.4702658  13.2983878  21.5628335
  48.7166366  12.7291276  21.4072339  49.6050199  13.2646543  22.5098969
  34.8601286  18.1697280  17.2383054  34.7246960  19.0148816  17.6667902
  35.4011098  18.3716558  16.4748988  31.3468625   4.2488860  33.8997409
  30.9535571   3.6955059  34.5745053  32.1634766   4.5599439  34.2903927
  28.3130683  15.6872718  17.8110979  28.8255204  16.4815969  17.9616544
  28.9653396  14.9899009  17.7444580  30.1225568  18.8038475  19.8933732
  30.2992196  19.7256439  19.7054716  30.9182401  18.4896894  20.3228112
  34.2636586   5.6646739  31.4917666  35.0046300   6.2653893  31.4122128
  34.4954509   4.9224377  30.9335708  29.4077924  10.8503107  29.7695895
  29.2931439   9.9488364  30.0702994  28.5522442  11.0966803  29.4180712
  36.4869762  18.7920847  31.3683396  36.0433616  18.0057226  31.0504301
  37.1486976  18.9799997  30.7027287  38.2093749   1.6927842  25.7681947
  37.8658019   2.5829484  25.6921058  38.5772712   1.5029500  24.9051532
  26.2779600  14.0161373  18.5870550  27.1154822  14.4258381  18.3704257
  26.4557868  13.0760815  18.5570743  38.1744032  11.6836453  14.2754383
  37.6590655  12.4541058  14.5142770  37.9021340  11.0101590  14.8987444
  35.7591143   6.5286154  19.3339621  34.9032739   6.1393005  19.1545260
  36.1718095   6.6078115  18.4739406  37.2890290   4.0632497  23.7331181
  36.7855085   4.0262633  22.9198986  37.5820896   4.9725240  23.7927837
  33.5333175   4.1471227  22.7397362  34.3986172   3.9514036  22.3803252
  33.6010684   3.9181579  23.6666719  43.1478306  14.4368808  16.2107556
  42.3707749  14.0979968  15.7662718  43.8269787  14.4421431  15.5362521
  37.9630335   9.5563546  16.1014164  37.6580471   9.8709695  16.9524307
  38.9160777   9.6344965  16.1441497  36.4076767  15.7153769  17.7507118
  35.8798129  14.9806528  17.4380355  35.9064270  16.4928445  17.5047086
  41.3869613  13.9102789  22.8674164  40.7293287  14.6002051  22.9554293
  42.1910012  14.2999221  23.2108150  31.1395495   6.3773435  20.1113729
  31.7139246   6.1548617  19.3786922  31.7266477   6.4462130  20.8642330
  40.1975072  12.2647162  20.9178106  40.7106954  12.8977154  21.4199815
  40.8476296  11.6648358  20.5521466  31.4665082   8.4077896  14.1309614
  30.6302394   8.7452583  14.4518889  31.3269851   8.2726876  13.1936751
  33.4418162   3.2514684  18.8388799  32.7882575   2.9363701  18.2145413
  33.3998636   2.6290424  19.5648622  34.5529367  13.5333979  10.7542091
  33.6456429  13.3023233  10.9533240  35.0500399  12.7371598  10.9416072
  37.4597446  22.2431486  13.6738777  36.7859145  22.5463183  14.2823735
  37.8463268  23.0460567  13.3244234  36.6755903   9.7396618  23.1636446
  35.7578464   9.9611565  23.0058134  37.0916046   9.8142928  22.3048154
  37.4590950  11.1388033  18.2939127  38.2062769  11.6509430  17.9846249
  37.7282540  10.8172086  19.1543520  35.7317601  13.6346574  15.2766081
  34.8228820  13.3505607  15.3738551  35.7612684  14.0545653  14.4169388
  40.9636868  17.2453163  19.0457248  40.5099195  16.4044073  19.1022439
  40.3330835  17.8814562  19.3832029  39.9069788   8.1745150  20.2757916
  39.1692544   7.6622536  20.6068158  40.1596561   7.7345531  19.4641193
  39.4069807  19.0829660  19.9807067  39.6992782  19.6434717  19.2619432
  39.9168428  19.3758221  20.7360226  40.0081415   0.9521402  20.8699685
  40.3140292   0.0918765  20.5825600  40.7334020   1.5439022  20.6698679
  26.3005771  11.3552088  19.2581283  26.1030171  10.7621449  18.5332350
  25.7452435  11.0504298  19.9757222  34.2802495  11.2475195  21.3775876
  34.3351104  10.2949031  21.3018353  33.4693697  11.4034634  21.8617175
  35.4293688  15.1755318  12.6154159  34.9913118  14.4591177  12.1559797
  36.1704129  15.4031432  12.0539251  32.2194855   9.8652254  19.1366255
  31.4062720  10.1646425  19.5431447  32.7153849   9.4707943  19.8540737
  37.8169066  10.3294079  27.9681149  38.1718454  10.5565552  28.8275615
  38.4641197  10.6612456  27.3458404  43.5466803  13.4512515  18.6730478
  43.4084702  13.6414111  17.7451667  43.1903022  14.2131897  19.1298529
  31.7108929   7.4370610  24.7527490  32.3508309   7.2959369  24.0550453
  30.8786460   7.1505123  24.3766092  43.5736183  15.5189042  23.6841749
  44.0072689  15.4264331  24.5324803  44.2867763  15.4946542  23.0461765
  32.4869233  16.7373040  20.8662482  33.2809832  16.2423360  20.6645057
  31.7760926  16.2090903  20.5030188  37.3064078  19.1191136  25.2174850
  37.3601100  19.6882072  25.9852566  36.4378859  19.2893021  24.8528887
  28.7951997  10.8816122  16.9422235  27.8649585  10.8200577  17.1592197
  28.8909469  10.3592075  16.1458876  28.7137546   7.4070935  19.5300477
  28.9744363   8.3216268  19.4209637  29.5354718   6.9395377  19.6797090
  30.1862471   8.8208692  26.6999301  30.8585524   8.6126054  26.0511950
  29.3592258   8.6230778  26.2604534  44.4351732  15.5612742  26.2174635
  44.6287622  16.4658553  26.4633910  44.3352350  15.1020161  27.0513220
  36.0888043   5.4470633  28.7164962  35.4415958   6.1460583  28.6229439
  36.8589058   5.8806777  29.0841210  39.4966841  15.7119485  31.7915515
  39.3452347  15.4830037  30.8745599  39.4871520  16.6690087  31.8046860
  36.2652177  13.2851398  26.7761782  37.1944237  13.4362557  26.6030749
  35.8443207  13.3735419  25.9210428  35.0640509  17.3102062  24.5460320
  34.9251595  16.9420847  25.4186258  34.2755105  17.8249702  24.3744277
  35.6588661  22.4111159  15.8885856  35.8340417  21.9399202  16.7031479
  34.9721449  23.0376925  16.1167117  36.6145724  16.6883665  21.9349157
  36.2795557  16.6484435  22.8306807  36.1149670  16.0228381  21.4619568
  30.5889968  12.0951295  27.4601738  30.4509766  11.3631534  28.0613278
  31.4994892  12.0060195  27.1785926  39.5504916  14.0339699  12.2086217
  38.9334087  13.3086527  12.1119270  39.0821404  14.7949060  11.8653291
  33.2172269  11.8071254  26.9485418  33.9271887  11.1664446  26.9072037
  33.1741577  12.0584149  27.8711599  31.9301203   8.7936472  28.7681058
  31.3938560   8.3427211  29.4202654  31.3417911   8.9282381  28.0251522
  31.3403462   8.2525124  11.3307521  30.4632928   8.1313924  10.9669768
  31.8161215   7.4611202  11.0786410  41.2076455  16.7078192  28.1005977
  40.3203234  16.3704113  28.2232376  41.7775006  15.9761223  28.3374742
  22.8605602  13.0402283  21.4249028  23.5476642  12.7264013  20.8370044
  22.7053731  13.9443648  21.1516280  27.6640324   7.9292480  25.8534052
  27.5798513   7.3218149  25.1184462  26.8423031   8.4201498  25.8543548
  34.5267388  20.6051414  18.5770042  33.7434910  21.1473094  18.6708266
  35.2260133  21.1225394  18.9764283  37.8364038   6.4146043  21.2204247
  38.3332738   5.6616006  20.9005317  37.0651020   6.4510360  20.6547456
  45.6893795  12.1186409  22.8622539  45.6783672  13.0011124  22.4916472
  44.8211175  11.7657960  22.6677076  38.9193819  15.1717731  18.7942671
  37.9850097  15.2919193  18.6247375  39.0970487  14.2690197  18.5302680
  34.4199007   8.5563426  20.9475932  34.0496794   8.0034467  21.6356837
  34.9158099   7.9521560  20.3950932  42.3066370  11.0135050  19.3292705
  42.7726822  11.8463042  19.2553007  42.7573871  10.5480031  20.0337963
  40.3742601  17.3578871  16.3278857  40.6502445  17.2435466  17.2372731
  39.5047100  16.9596356  16.2891030  40.2783033   3.3815637  23.3683606
  39.3646113   3.6119864  23.5365813  40.7076134   3.4654081  24.2197638
  40.0489491  11.5705529  25.8683500  39.3960942  11.8181436  25.2135953
  40.4269871  10.7569667  25.5345977  37.0096665  21.6065222  19.9711670
  37.1919060  20.7886878  20.4339423  37.8329651  21.8232914  19.5336560
  37.3438831  20.5333407  17.2326719  37.8726597  20.0225862  16.6196881
  37.6067050  20.2175937  18.0972252  36.0977064  12.3125340  32.3549537
  35.4217701  12.2119469  33.0251912  36.9204698  12.1564554  32.8185534
  22.4373578  11.1202877  23.6966496  22.4757678  10.5866467  24.4903614
  21.9313871  10.5938082  23.0777473  29.8164340   5.9667417  27.1929038
  29.8805667   6.8282248  26.7806436  29.7531461   5.3541419  26.4601396
  29.2916613   8.0390550  30.8402072  29.9188652   7.6567627  31.4539596
  28.4344532   7.8204752  31.2057765  39.6910722  18.4453525  32.4455808
  40.2350626  19.0583483  31.9510762  39.1097566  19.0033103  32.9622821
  26.0682156   9.8466979  16.7720427  26.3635597   8.9377657  16.7187481
  25.1670192   9.8254718  16.4501429  29.5976403   7.9222975  22.7547976
  28.8762988   8.5358943  22.6155449  30.3869659   8.4580740  22.6764621
  32.4002716   5.2577402  29.0288627  32.9237118   5.5039698  29.7914937
  32.1815050   6.0897437  28.6091765  27.7969997   7.5281076  16.8959752
  27.4682703   6.6478455  16.7134858  28.1509368   7.4728745  17.7836141
  37.0449576  19.1635979  21.4054738  36.8974539  18.2352687  21.5862308
  37.8703070  19.1856070  20.9211813  30.9111820   7.8154046  17.2635230
  31.2507893   8.3439968  16.5413838  31.3583941   8.1534452  18.0393796
  33.6055261   6.1991097  26.7138298  33.2652082   5.3998910  27.1158978
  32.8994268   6.4992808  26.1415131  34.2571733   3.2840409  25.1665621
  35.0797802   2.8100888  25.0444511  34.5009797   4.0630893  25.6664307
  32.8979968   6.3128668  15.4628522  33.6188330   6.6909921  14.9592239
  32.2745272   7.0317545  15.5663500  37.0411091   7.0173817  16.3986855
  37.2574705   7.8998455  16.0975683  36.5605158   6.6260030  15.6692497
  31.7810312   9.9759530  22.9757599  31.6354893  10.2899833  23.8681881
  31.3035516  10.5944430  22.4228498  33.6406695   6.9662078  23.0238489
  33.6268264   6.0703171  22.6870787  34.3579123   6.9732742  23.6576775
  35.4932825   7.3999418  25.0691616  35.2350603   8.3216489  25.0675947
  34.9617866   7.0029853  25.7592081  26.2555974  12.5164874  25.9145261
  25.7109442  13.2924682  26.0465535  27.1335324  12.8635679  25.7564382
  33.0443591   5.8476458  18.2926059  33.1659502   4.9193105  18.4916947
  32.7545633   5.8615144  17.3804375  35.9134781   3.5331369  21.4292779
  35.9356478   3.5970702  20.4744759  36.3302840   2.6935877  21.6233285
  46.2918405  13.2686628  19.4672002  46.7349551  12.5193954  19.0691125
  45.4144916  13.2596765  19.0845734  41.4254187  19.8216970  14.9478600
  42.1205091  20.4423662  15.1665915  41.7677337  18.9712321  15.2230978
  27.0421996  11.6434771  28.8075417  26.3003732  11.7917406  29.3940048
  26.7214740  11.9043036  27.9442167  43.3245610  17.2716675  16.4765931
  43.8496934  17.6103948  15.7515251  43.2367962  16.3363691  16.2929065
  27.4878610  19.5300199  20.8385812  28.3136629  19.2303971  20.4584456
  27.1372662  18.7607822  21.2875601  25.6887215  17.4486526  21.7974746
  24.8519123  17.0208700  21.6158747  25.6610860  17.6418969  22.7345537
  32.5284670   7.3608456  32.5015992  32.5772826   8.2370579  32.1193761
  33.0707184   6.8185849  31.9287635  43.0139516  17.9049579  31.7817129
  42.2235060  17.8873718  31.2421628  42.7772870  18.4437873  32.5366165
  43.1337391  14.7542045  29.0949857  43.1835396  14.5892053  30.0365380
  43.0251314  13.8869304  28.7047738  32.0173650  17.4330591  16.3841946
  32.1661770  18.1166055  15.7308619  32.8240093  17.4135681  16.8991402
  40.4241153  10.7372973  30.4109164  41.3251016  10.5979438  30.1193162
  40.4989128  10.9027428  31.3507341  34.7583959   8.1139828  29.2562350
  33.8887268   8.4073394  28.9844939  34.9943439   8.6980273  29.9769614
  44.6355588  17.1738987  29.3391879  44.3440396  17.5368967  30.1755340
  44.0227719  16.4605995  29.1605211  45.8351270  14.7391867  21.8594449
  46.6698161  15.1781671  22.0232009  45.9710399  14.2630520  21.0402695
  42.8842776  12.2971601  27.8071937  43.3596898  12.4899248  26.9990788
  41.9608341  12.3530787  27.5615321  29.7726283  13.4595769  17.3903015
  29.5272325  12.5558099  17.5883225  29.9422197  13.4612919  16.4482493
  37.4622993   4.3319445  26.7727771  37.9804936   5.0680472  26.4474259
  37.1078125   4.6383438  27.6074530  29.0421930   9.1924126  14.8889177
  28.3491175   9.2668481  14.2329213  28.7973682   8.4284470  15.4110694
  37.7135587   0.7519728  22.2928667  37.9937340   0.0842917  22.9189094
  38.4986194   0.9448823  21.7803331  35.5169055  19.9278721  13.8553694
  34.9443022  20.5468909  13.4024166  36.0901849  20.4778083  14.3893616
  41.5844445   9.1737362  26.0400242  42.5361868   9.2735459  26.0612467
  41.4147895   8.3815630  26.5498327  39.6058825   6.2592945  26.2259643
  39.0108757   6.5397958  25.5306132  39.3208521   6.7486846  26.9976384
  38.7366315  20.2115872  14.9862276  39.6696988  20.1461433  15.1895151
  38.6489528  21.0472138  14.5276809  41.3654332  19.5281742  11.9466224
  41.2867963  19.1941606  12.8401981  42.1863998  20.0203510  11.9457696
  44.0632523  12.3943481  25.1542542  44.0308843  11.4559482  25.3402226
  44.6733146  12.4727518  24.4208367  35.9015854  11.2639534  11.1969746
  36.8474958  11.1345742  11.2658164  35.5230099  10.5254196  11.6739174
  44.2127011   9.1854525  25.2000825  43.6966060   8.4012981  25.0130754
  45.0966960   8.8573241  25.3647345  41.8737738   2.9295540  21.1596638
  41.6762559   2.6210628  22.0439970  42.4837444   3.6557179  21.2894568
  49.8809073  13.4559488  24.2948579  50.6112461  13.1944776  24.8556282
  49.2716018  12.7188210  24.3350647  47.9624370  11.5967351  24.8923030
  47.2357533  11.4623316  24.2839522  47.5471657  11.9044179  25.6979748
  35.7854546  15.3157280  32.6570403  36.7057556  15.4935879  32.8510450
  35.7504129  14.3713326  32.5050102  34.0858771   9.1889511  11.1324631
  33.1790226   8.8922623  11.2087345  34.3634752   8.8919329  10.2658918
  25.0036711  10.5095874  21.5823678  24.6839496   9.6561182  21.2898052
  24.4570139  10.7244452  22.3381645  28.7816619  13.2258315  25.2993184
  29.0002629  14.1575423  25.3181218  29.1942393  12.8666289  26.0847988
  35.7020837   3.7326400  17.2868873  34.8921565   3.3873485  17.6624119
  36.3905253   3.4233944  17.8756484  37.6311385   2.8104447  18.9093169
  38.1842423   3.2299901  19.5683192  37.8681471   1.8840195  18.9516125
  33.6544484   8.7991521  34.6895933  33.5541211   9.7485878  34.6208024
  33.4366026   8.4709760  33.8172003  24.8724971  14.1298786  23.5516799
  24.1788443  13.7152738  23.0386754  25.6197962  14.1719322  22.9550218
  41.0090192   4.9204972  18.4171834  40.4288861   5.5789776  18.0349886
  40.7426125   4.0982317  18.0059251  39.4593758   4.3210030  20.6193154
  39.9593537   4.4326565  19.8107473  40.1029366   4.0171083  21.2593962
  33.5175754  12.2288660  33.5060995  33.0342836  13.0289020  33.7124884
  33.6036693  12.2396604  32.5528439  26.7861714  14.0617039  21.4282814
  26.7632402  14.1604727  20.4764697  27.0962350  14.9082190  21.7499980
  39.7915070   7.0805063  17.4728182  38.9040925   7.3654713  17.2548377
  40.2069059   6.9198826  16.6255459  43.1429606   7.1051584  21.1882521
  43.9189996   7.5948036  21.4607138  42.4177740   7.5309638  21.6454391
  45.5802165   7.8179203  22.2456462  46.1746656   7.5774939  21.5349770
  45.6528748   7.0986333  22.8729998  27.7999320  21.6612814  22.5599627
  27.6653788  20.9013215  21.9937625  27.3831383  22.3853714  22.0928415
  38.9358283  16.8449737  11.5676202  39.6394134  17.0499740  12.1833857
  38.2120932  17.4126499  11.8325285  39.7656094  12.5959599  17.6878472
  39.7091295  13.0528150  16.8486104  40.3184436  11.8350283  17.5101315
  43.5760900   8.3849330  18.5128591  43.3197834   7.9845966  19.3436799
  42.9513768   9.0993124  18.3878731  47.8873237  11.1245404  21.0199883
  47.3272795  11.1938593  21.7931445  47.2816741  10.9486388  20.2999379
  40.8444981  17.2832267  13.6174662  41.6790585  16.8513465  13.4352137
  40.6829324  17.1114280  14.5451556  40.4990873  13.7864380  14.9831001
  40.4439677  13.6208651  14.0419445  39.8736928  14.4940413  15.1393191
  25.2883388   9.0232444  28.8092423  25.9342252   8.5131398  29.2979649
  25.0800539   9.7601126  29.3835849  37.8136780  16.0913292  34.3084564
  38.6827940  16.2653944  33.9471199  37.3343532  16.9107709  34.1860293
  33.8086998   3.2872489  14.5616320  33.7965668   4.2314329  14.7184590
  34.7010420   3.1042634  14.2675781  37.6239118  -0.1184734  18.8162256
  36.8571514  -0.6726248  18.9618939  38.0349823  -0.0462866  19.6776408
  29.6280879   6.1700061  32.9067438  30.4912341   5.8136866  33.1170762
  29.0546290   5.8313956  33.5942842  47.7205337  33.2735790  14.9502719
  47.0693316  33.8589870  14.5636733  48.5149699  33.8041985  15.0097757
  41.6460964  30.3624927  15.3489854  42.4191840  29.8153914  15.2102729
  41.9986363  31.2269176  15.5604315  43.9827242  26.5217593  12.9808303
  44.2352762  25.9999114  12.2191766  43.0451801  26.3583739  13.0834987
  49.1980602  30.9626222  15.4871703  48.5626435  31.0360848  16.1992608
  48.8678008  31.5519821  14.8090783  54.4278952  25.4628605  21.6916025
  55.1604123  24.8927822  21.9253855  53.6718307  25.0750205  22.1322531
  43.7023530  28.4245699  15.1832678  43.5859788  27.7490602  15.8513763
  43.8125790  27.9378073  14.3664831  51.9504372  19.1750179  26.1510634
  51.6187697  20.0445590  25.9271849  51.3549985  18.8586463  26.8304664
  45.6860558  22.9145746  13.8840716  45.8534961  23.7825982  14.2511187
  45.4957727  23.0773028  12.9602005  45.6649779  25.3703403  14.8687383
  45.5449404  25.8160454  15.7072863  44.9702367  25.7188721  14.3100921
  53.7094682  22.0961703  25.0081858  53.0669062  22.3894237  24.3621652
  53.2049610  21.9814624  25.8135054  51.3634845  25.8424877  15.6967717
  52.2752701  26.0752263  15.5215415  50.8544492  26.4261921  15.1342796
  53.8493659  31.7605133  20.4425662  53.1644698  32.1404034  19.8922696
  53.9337509  32.3700460  21.1757610  44.4601276  26.6848255  17.1620949
  45.1625319  27.1369299  17.6294875  44.1281904  26.0432074  17.7900842
  52.2190419  32.2837047  25.2143363  53.0407863  31.8817235  24.9326045
  52.2152822  32.1805281  26.1659479  60.3096412  28.6275796  21.5628335
  59.5560120  28.0583194  21.4072339  60.4443953  28.5938460  22.5098969
  42.1862380  19.5780778  33.8997409  41.7929325  19.0246977  34.5745053
  43.0028520  19.8891356  34.2903927  39.1524438  31.0164636  17.8110979
  39.6648958  31.8107886  17.9616544  39.8047150  30.3190927  17.7444580
  49.0487504  17.0219760  25.7681947  48.7051773  17.9121402  25.6921058
  49.4166466  16.8321418  24.9051532  49.0137786  27.0128371  14.2754383
  48.4984410  27.7832976  14.5142770  48.7415095  26.3393507  14.8987444
  46.5984897  21.8578072  19.3339621  45.7426494  21.4684922  19.1545260
  47.0111849  21.9370033  18.4739406  44.3726930  19.4763145  22.7397362
  45.2379927  19.2805954  22.3803252  44.4404439  19.2473497  23.6666719
  53.9872061  29.7660726  16.2107556  53.2101503  29.4271885  15.7662718
  54.6663542  29.7713349  15.5362521  48.8024090  24.8855463  16.1014164
  48.4974225  25.2001612  16.9524307  49.7554532  24.9636883  16.1441497
  51.0368826  27.5939080  20.9178106  51.5500708  28.2269072  21.4199815
  51.6870050  26.9940275  20.5521466  42.3058836  23.7369814  14.1309614
  41.4696148  24.0744500  14.4518889  42.1663606  23.6018794  13.1936751
  44.2811917  18.5806602  18.8388799  43.6276329  18.2655619  18.2145413
  44.2392391  17.9582342  19.5648622  45.3923122  28.8625897  10.7542091
  44.4850183  28.6315150  10.9533240  45.8894154  28.0663516  10.9416072
  48.2991201  37.5723404  13.6738777  47.6252899  37.8755101  14.2823735
  48.6857022  38.3752484  13.3244234  48.2984705  26.4679951  18.2939127
  49.0456524  26.9801348  17.9846249  48.5676294  26.1464004  19.1543520
  46.5711355  28.9638492  15.2766081  45.6622574  28.6797524  15.3738551
  46.6006439  29.3837570  14.4169388  51.8030622  32.5745081  19.0457248
  51.3492950  31.7335991  19.1022439  51.1724589  33.2106480  19.3832029
  50.7463542  23.5037067  20.2757916  50.0086299  22.9914453  20.6068158
  50.9990316  23.0637449  19.4641193  50.2463562  34.4121578  19.9807067
  50.5386536  34.9726635  19.2619432  50.7562182  34.7050139  20.7360226
  50.8475169  16.2813319  20.8699685  51.1534046  15.4210683  20.5825600
  51.5727774  16.8730939  20.6698679  46.2687443  30.5047235  12.6154159
  45.8306873  29.7883094  12.1559797  47.0097884  30.7323350  12.0539251
  54.3860558  28.7804432  18.6730478  54.2478456  28.9706028  17.7451667
  54.0296776  29.5423815  19.1298529  54.4129937  30.8480959  23.6841749
  54.8466444  30.7556248  24.5324803  55.1261518  30.8238460  23.0461765
  55.2745487  30.8904660  26.2174635  55.4681377  31.7950471  26.4633910
  55.1746105  30.4312079  27.0513220  50.3898670  29.3631617  12.2086217
  49.7727841  28.6378445  12.1119270  49.9215159  30.1240977  11.8653291
  42.1797216  23.5817041  11.3307521  41.3026683  23.4605842  10.9669768
  42.6554969  22.7903120  11.0786410  48.6757793  21.7437961  21.2204247
  49.1726492  20.9907923  20.9005317  47.9044774  21.7802278  20.6547456
  56.5287550  27.4478327  22.8622539  56.5177426  28.3303042  22.4916472
  55.6604929  27.0949877  22.6677076  49.7587573  30.5009648  18.7942671
  48.8243852  30.6211111  18.6247375  49.9364242  29.5982115  18.5302680
  53.1460125  26.3426968  19.3292705  53.6120577  27.1754959  19.2553007
  53.5967625  25.8771949  20.0337963  51.2136356  32.6870789  16.3278857
  51.4896200  32.5727383  17.2372731  50.3440854  32.2888274  16.2891030
  51.1176787  18.7107555  23.3683606  50.2039867  18.9411781  23.5365813
  51.5469889  18.7945999  24.2197638  48.1832585  35.8625325  17.2326719
  48.7120352  35.3517779  16.6196881  48.4460805  35.5467855  18.0972252
  51.4877453  35.3156456  22.4919610  52.4124000  35.1099317  22.3544061
  51.3192756  35.0672857  23.4008952  43.7373722  21.6420586  15.4628522
  44.4582085  22.0201838  14.9592239  43.1139026  22.3609462  15.5663500
  47.8804845  22.3465735  16.3986855  48.0968459  23.2290372  16.0975683
  47.3998912  21.9551948  15.6692497  51.2772769  35.8342123  17.8481702
  51.4509646  35.2688546  17.0955554  51.7701660  36.6343018  17.6661192
  43.8837345  21.1768376  18.2926059  44.0053256  20.2485022  18.4916947
  43.5939388  21.1907062  17.3804375  46.7528536  18.8623286  21.4292779
  46.7750232  18.9262620  20.4744759  47.1696595  18.0227795  21.6233285
  57.1312160  28.5978546  19.4672002  57.5743306  27.8485871  19.0691125
  56.2538670  28.5888682  19.0845734  52.2647941  35.1508887  14.9478600
  52.9598846  35.7715580  15.1665915  52.6071091  34.3004239  15.2230978
  54.1639364  32.6008593  16.4765931  54.6890688  32.9395866  15.7515251
  54.0761717  31.6655608  16.2929065  42.8567404  32.7622509  16.3841946
  43.0055525  33.4457973  15.7308619  43.6633848  32.7427599  16.8991402
  55.4749342  32.5030905  29.3391879  55.1834151  32.8660885  30.1755340
  54.8621474  31.7897913  29.1605211  56.6745025  30.0683784  21.8594449
  57.5091916  30.5073588  22.0232009  56.8104153  29.5922438  21.0402695
  53.7236531  27.6263519  27.8071937  54.1990652  27.8191165  26.9990788
  52.8002096  27.6822705  27.5615321  40.6120037  28.7887686  17.3903015
  40.3666079  27.8850016  17.5883225  40.7815952  28.7904837  16.4482493
  48.5529341  16.0811645  22.2928667  48.8331095  15.4134834  22.9189094
  49.3379948  16.2740741  21.7803331  46.3562810  35.2570639  13.8553694
  45.7836777  35.8760826  13.4024166  46.9295603  35.8070001  14.3893616
  49.5760069  35.5407789  14.9862276  50.5090743  35.4753351  15.1895151
  49.4883282  36.3764056  14.5276809  52.2048086  34.8573660  11.9466224
  52.1261718  34.5233523  12.8401981  53.0257753  35.3495428  11.9457696
  54.9026277  27.7235399  25.1542542  54.8702597  26.7851400  25.3402226
  55.5126901  27.8019436  24.4208367  46.7409608  26.5931452  11.1969746
  47.6868713  26.4637660  11.2658164  46.3623853  25.8546114  11.6739174
  55.0520766  24.5146442  25.2000825  54.5359814  23.7304899  25.0130754
  55.9360714  24.1865159  25.3647345  52.7131493  18.2587458  21.1596638
  52.5156314  17.9502546  22.0439970  53.3231198  18.9849097  21.2894568
  60.7202827  28.7851406  24.2948579  61.4506216  28.5236694  24.8556282
  60.1109773  28.0480128  24.3350647  58.8018124  26.9259268  24.8923030
  58.0751288  26.7915233  24.2839522  58.3865411  27.2336097  25.6979748
  44.9252525  24.5181428  11.1324631  44.0183981  24.2214541  11.2087345
  45.2028506  24.2211246  10.2658918  46.5414591  19.0618318  17.2868873
  45.7315319  18.7165403  17.6624119  47.2299008  18.7525862  17.8756484
  48.4705139  18.1396365  18.9093169  49.0236178  18.5591818  19.5683192
  48.7075226  17.2132113  18.9516125  43.6951310  21.3768364  11.2736611
  44.5570474  21.7023262  11.5332428  43.8801654  20.5899859  10.7609676
  51.8483946  20.2496890  18.4171834  51.2682615  20.9081694  18.0349886
  51.5819879  19.4274235  18.0059251  50.2987513  19.6501948  20.6193154
  50.7987291  19.7618482  19.8107473  50.9423121  19.3463001  21.2593962
  50.6308824  22.4096980  17.4728182  49.7434679  22.6946631  17.2548377
  51.0462814  22.2490744  16.6255459  53.9823361  22.4343501  21.1882521
  54.7583751  22.9239954  21.4607138  53.2571495  22.8601556  21.6454391
  56.4195919  23.1471121  22.2456462  57.0140410  22.9066857  21.5349770
  56.4922503  22.4278251  22.8729998  49.7752038  32.1741655  11.5676202
  50.4787888  32.3791658  12.1833857  49.0514687  32.7418417  11.8325285
  50.6049848  27.9251516  17.6878472  50.5485050  28.3820068  16.8486104
  51.1578191  27.1642201  17.5101315  54.4154654  23.7141248  18.5128591
  54.1591588  23.3137884  19.3436799  53.7907522  24.4285042  18.3878731
  58.7266992  26.4537321  21.0199883  58.1666550  26.5230511  21.7931445
  58.1210495  26.2778306  20.2999379  51.6838735  32.6124184  13.6174662
  52.5184339  32.1805383  13.4352137  51.5223078  32.4406198  14.5451556
  51.3384628  29.1156298  14.9831001  51.2833431  28.9500569  14.0419445
  50.7130683  29.8232330  15.1393191  44.6480753  18.6164407  14.5616320
  44.6359423  19.5606246  14.7184590  45.5404175  18.4334552  14.2675781
  48.4632872  15.2107183  18.8162256  47.6965268  14.6565670  18.9618939
  48.8743577  15.2829052  19.6776408  40.4674633  21.4991979  32.9067438
  41.3306095  21.1428784  33.1170762  39.8940044  21.1605874  33.5942842
  60.3123010  43.1293835  23.7129839  60.9501420  43.0100583  23.0093179
  60.1943853  44.0774679  23.7717791  57.1212717  43.0821263  23.6491363
  56.7831228  42.9662328  22.7611898  57.9902485  42.6812429  23.6292369
  52.9799532  44.9356740  19.6388254  52.4164398  44.8446677  18.8704542
  52.8651927  44.1156644  20.1190747  57.6032500  44.2356115  29.6077569
  57.5921140  43.8408913  28.7358073  57.7653139  43.5022188  30.2011340
  50.5263964  46.4307931  22.4772475  51.3185256  46.0898756  22.0618774
  50.7660614  46.5402907  23.3974628  58.5599091  48.6027708  14.9502719
  57.9087071  49.1881788  14.5636733  59.3543454  49.1333902  15.0097757
  52.4854718  45.6916845  15.3489854  53.2585594  45.1445832  15.2102729
  52.8380117  46.5561094  15.5604315  54.3239761  47.0193227  28.5556753
  54.0329627  47.9238858  28.4403419  54.9596745  47.0609755  29.2700822
  55.2495968  44.3970075  25.1458112  55.8459540  44.1726098  24.4315075
  55.3070939  43.6554821  25.7483560  54.8220996  41.8509511  12.9808303
  55.0746517  41.3291032  12.2191766  53.8845555  41.6875656  13.0834987
  59.8664279  40.8545289  20.7883047  60.6527368  40.4364712  20.4373464
  60.1302983  41.7591381  20.9564695  60.0374356  46.2918139  15.4871703
  59.4020189  46.3652766  16.1992608  59.7071763  46.8811738  14.8090783
  65.2672706  40.7920522  21.6916025  65.9997878  40.2219739  21.9253855
  64.5112062  40.4042123  22.1322531  54.5417285  43.7537617  15.1832678
  54.4253543  43.0782520  15.8513763  54.6519545  43.2669991  14.3664831
  56.8848826  43.2147764  18.8879368  56.5207033  42.6878385  19.5992289
  57.7415942  42.8246233  18.7145853  62.7898126  34.5042096  26.1510634
  62.4581451  35.3737507  25.9271849  62.1943740  34.1878380  26.8304664
  56.5254313  38.2437664  13.8840716  56.6928715  39.1117900  14.2511187
  56.3351482  38.4064945  12.9602005  59.2829646  46.7054642  25.5506547
  58.9830369  47.6079681  25.4422354  58.9380705  46.4386826  26.4027699
  52.7342127  43.1568439  21.5843251  51.8092624  43.0244653  21.7920943
  52.9826541  43.9362659  22.0813193  62.6826790  39.2237183  23.2303984
  61.7743667  39.1552591  22.9362745  62.6314385  39.7009128  24.0585809
  56.5043534  40.6995321  14.8687383  56.3843159  41.1452372  15.7072863
  55.8096122  41.0480639  14.3100921  50.0950938  42.8001713  22.4187040
  50.2243320  43.0536192  23.3326452  49.4148390  43.3929421  22.0991695
  54.2650426  53.4698963  18.5177514  54.1874455  54.4206788  18.5965995
  53.6612069  53.1244835  19.1752441  64.5488436  37.4253621  25.0081858
  63.9062816  37.7186154  24.3621652  64.0443365  37.3106541  25.8135054
  62.2028600  41.1716794  15.6967717  63.1146456  41.4044181  15.5215415
  61.6938247  41.7553838  15.1342796  60.4869367  45.5941422  29.3329010
  60.8952723  45.1523833  28.5883642  59.7646629  45.0194050  29.5863202
  60.8098182  46.1542613  23.0881298  60.1807045  46.3188327  22.3857366
  60.4223844  46.5684222  23.8592263  64.6887414  47.0897051  20.4425662
  64.0038452  47.4695952  19.8922696  64.7731263  47.6992377  21.1757610
  59.9899883  38.1918397  28.3643740  59.7460815  38.9460458  27.8278016
  60.2659813  38.5703745  29.1990987  61.9438346  44.7357010  27.0421006
  62.1555241  45.3788769  26.3655387  61.8968094  43.9019326  26.5742936
  59.5464575  37.3474830  23.9457578  58.6849054  37.6456084  24.2374315
  59.5727009  37.5645229  23.0138611  56.3626144  45.8917021  20.3531384
  56.8264489  46.1704724  19.5636006  56.0982942  44.9900465  20.1704474
  53.2550225  45.4388502  23.2911147  53.8251582  45.8675771  22.6528631
  53.8458337  45.1571087  23.9895332  55.2995030  42.0140173  17.1620949
  56.0019073  42.4661217  17.6294875  54.9675659  41.3723992  17.7900842
  49.0420364  40.2723726  22.4638082  48.2519418  40.5281254  21.9878193
  49.5331611  41.0872064  22.5690123  63.0584174  47.6128965  25.2143363
  63.8801617  47.2109152  24.9326045  63.0546576  47.5097199  26.1659479
  50.9935109  40.6368305  19.4221559  50.1966273  40.7486999  19.9405055
  50.7660702  40.9754957  18.5562450  56.8240777  47.1613008  27.3704074
  56.8885209  47.6233416  28.2062245  56.1151701  46.5310373  27.4986383
  56.5388795  48.8281116  17.2383054  56.4034469  49.6732652  17.6667902
  57.0798607  49.0300393  16.4748988  49.9918192  46.3456554  17.8110979
  50.5042713  47.1399804  17.9616544  50.6440905  45.6482844  17.7444580
  51.8013077  49.4622310  19.8933732  51.9779705  50.3840275  19.7054716
  52.5969910  49.1480729  20.3228112  58.1657271  49.4504682  31.3683396
  57.7221125  48.6641061  31.0504301  58.8274485  49.6383833  30.7027287
  52.9244392  50.9800484  25.8944075  53.4751817  50.8517547  25.1221068
  52.0855868  51.2795373  25.5438967  60.2638509  49.7307482  29.3964797
  60.2456984  50.5516363  28.9045066  61.1858429  49.6061557  29.6214938
  56.7211563  47.2451612  30.2388306  57.2539900  46.4839900  30.0087614
  56.1925644  46.9525264  30.9812460  59.8881258  32.3511678  25.7681947
  59.5445528  33.2413319  25.6921058  60.2560221  32.1613335  24.9051532
  59.8531541  42.3420289  14.2754383  59.3378164  43.1124893  14.5142770
  59.5808849  41.6685425  14.8987444  57.4378652  37.1869990  19.3339621
  56.5820248  36.7976840  19.1545260  57.8505604  37.2661950  18.4739406
  58.9677799  34.7216333  23.7331181  58.4642594  34.6846468  22.9198986
  59.2608405  35.6309076  23.7927837  55.2120684  34.8055063  22.7397362
  56.0773681  34.6097871  22.3803252  55.2798193  34.5765414  23.6666719
  64.8265815  45.0952643  16.2107556  64.0495258  44.7563803  15.7662718
  65.5057296  45.1005267  15.5362521  59.6417844  40.2147381  16.1014164
  59.3367980  40.5293530  16.9524307  60.5948286  40.2928801  16.1441497
  58.0864276  46.3737604  17.7507118  57.5585638  45.6390364  17.4380355
  57.5851779  47.1512281  17.5047086  63.0657122  44.5686625  22.8674164
  62.4080796  45.2585886  22.9554293  63.8697521  44.9583057  23.2108150
  52.8183004  37.0357270  20.1113729  53.3926755  36.8132452  19.3786922
  53.4053986  37.1045965  20.8642330  61.8762581  42.9230997  20.9178106
  62.3894463  43.5560989  21.4199815  62.5263805  42.3232193  20.5521466
  53.1452591  39.0661732  14.1309614  52.3089903  39.4036418  14.4518889
  53.0057360  38.9310711  13.1936751  55.1205671  33.9098519  18.8388799
  54.4670084  33.5947537  18.2145413  55.0786145  33.2874260  19.5648622
  56.2316876  44.1917814  10.7542091  55.3243938  43.9607068  10.9533240
  56.7287908  43.3955434  10.9416072  59.1384955  52.9015322  13.6738777
  58.4646654  53.2047018  14.2823735  59.5250777  53.7044402  13.3244234
  58.3543412  40.3980453  23.1636446  57.4365973  40.6195400  23.0058134
  58.7703555  40.4726763  22.3048154  59.1378459  41.7971869  18.2939127
  59.8850278  42.3093266  17.9846249  59.4070049  41.4755921  19.1543520
  57.4105110  44.2930409  15.2766081  56.5016329  44.0089442  15.3738551
  57.4400193  44.7129488  14.4169388  62.6424377  47.9036999  19.0457248
  62.1886704  47.0627909  19.1022439  62.0118344  48.5398397  19.3832029
  61.5857297  38.8328985  20.2757916  60.8480053  38.3206371  20.6068158
  61.8384070  38.3929366  19.4641193  61.0857316  49.7413496  19.9807067
  61.3780291  50.3018553  19.2619432  61.5955937  50.0342057  20.7360226
  61.6868924  31.6105237  20.8699685  61.9927801  30.7502600  20.5825600
  62.4121529  32.2022857  20.6698679  55.9590004  41.9059030  21.3775876
  56.0138613  40.9532866  21.3018353  55.1481206  42.0618469  21.8617175
  57.1081197  45.8339153  12.6154159  56.6700627  45.1175012  12.1559797
  57.8491638  46.0615268  12.0539251  53.8982364  40.5236090  19.1366255
  53.0850229  40.8230260  19.5431447  54.3941358  40.1291778  19.8540737
  56.0490941  50.5193847  21.0700520  56.0067120  50.7454693  20.1409052
  56.9653640  50.2857221  21.2186321  59.4956575  40.9877914  27.9681149
  59.8505963  41.2149387  28.8275615  60.1428706  41.3196291  27.3458404
  65.2254312  44.1096350  18.6730478  65.0872211  44.2997946  17.7451667
  64.8690531  44.8715733  19.1298529  65.2523692  46.1772877  23.6841749
  65.6860198  46.0848166  24.5324803  65.9655272  46.1530378  23.0461765
  54.1656742  47.3956876  20.8662482  54.9597341  46.9007196  20.6645057
  53.4548435  46.8674739  20.5030188  58.9851587  49.7774971  25.2174850
  59.0388609  50.3465907  25.9852566  58.1166368  49.9476856  24.8528887
  50.4739506  41.5399957  16.9422235  49.5437094  41.4784413  17.1592197
  50.5696978  41.0175910  16.1458876  50.3925055  38.0654770  19.5300477
  50.6531872  38.9800103  19.4209637  51.2142227  37.5979213  19.6797090
  66.1139241  46.2196578  26.2174635  66.3075131  47.1242388  26.4633910
  66.0139859  45.7603997  27.0513220  57.7675552  36.1054468  28.7164962
  57.1203467  36.8044418  28.6229439  58.5376567  36.5390612  29.0841210
  61.1754350  46.3703320  31.7915515  61.0239856  46.1413872  30.8745599
  61.1659029  47.3273922  31.8046860  57.9439686  43.9435233  26.7761782
  58.8731746  44.0946393  26.6030749  57.5230716  44.0319254  25.9210428
  56.7428018  47.9685898  24.5460320  56.6039104  47.6004682  25.4186258
  55.9542614  48.4833537  24.3744277  57.3376170  53.0694994  15.8885856
  57.5127926  52.5983037  16.7031479  56.6508958  53.6960760  16.1167117
  58.2933233  47.3467500  21.9349157  57.9583066  47.3068270  22.8306807
  57.7937179  46.6812216  21.4619568  61.2292425  44.6923535  12.2086217
  60.6121596  43.9670363  12.1119270  60.7608913  45.4532895  11.8653291
  54.8959778  42.4655090  26.9485418  55.6059396  41.8248282  26.9072037
  54.8529086  42.7167985  27.8711599  62.8846557  49.4022443  29.8691997
  62.8259103  48.7181663  29.2022580  63.2866075  50.1441433  29.4172623
  51.9037255  56.2184357  22.6625716  52.1433854  56.8502881  23.3404735
  51.0606452  55.8672397  22.9491075  53.0190971  38.9108959  11.3307521
  52.1420437  38.7897760  10.9669768  53.4948724  38.1195037  11.0786410
  62.8863964  47.3662027  28.1005977  61.9990743  47.0287949  28.2232376
  63.4562515  46.6345058  28.3374742  56.4165117  52.0263479  25.0667220
  56.3435289  52.8318451  25.5786525  55.9742510  52.2255445  24.2415242
  56.2054897  51.2635249  18.5770042  55.4222419  51.8056929  18.6708266
  56.9047642  51.7809229  18.9764283  59.5151547  37.0729879  21.2204247
  60.0120247  36.3199841  20.9005317  58.7438529  37.1094195  20.6547456
  67.3681304  42.7770244  22.8622539  67.3571181  43.6594960  22.4916472
  66.4998684  42.4241795  22.6677076  58.8763801  51.9250313  27.2225379
  59.5891773  52.5597778  27.1501280  58.3853829  52.0214179  26.4065381
  60.5981328  45.8301566  18.7942671  59.6637606  45.9503028  18.6247375
  60.7757996  44.9274033  18.5302680  56.0986516  39.2147262  20.9475932
  55.7284303  38.6618302  21.6356837  56.5945608  38.6105395  20.3950932
  63.9853879  41.6718885  19.3292705  64.4514331  42.5046877  19.2553007
  64.4361380  41.2063867  20.0337963  53.9275714  49.6744757  28.0430950
  54.6285174  50.3081240  28.1960344  53.4570829  50.0159488  27.2826589
  62.0530110  48.0162707  16.3278857  62.3289954  47.9019301  17.2372731
  61.1834609  47.6180191  16.2891030  61.9570542  34.0399472  23.3683606
  61.0433622  34.2703699  23.5365813  62.3863643  34.1237916  24.2197638
  61.7277000  42.2289364  25.8683500  61.0748451  42.4765272  25.2135953
  62.1057380  41.4153502  25.5345977  58.6884174  52.2649057  19.9711670
  58.8706569  51.4470713  20.4339423  59.5117160  52.4816750  19.5336560
  59.0226340  51.1917243  17.2326719  59.5514106  50.6809697  16.6196881
  59.2854559  50.8759773  18.0972252  52.3782088  52.2432359  19.9924495
  51.7092463  52.7278487  19.5088535  52.2394957  52.4901580  20.9067873
  56.5187356  54.2776103  26.5907153  57.0705664  54.4407724  27.3556238
  56.8593550  54.8680541  25.9187178  61.3698231  49.1037360  32.4455808
  61.9138135  49.7167319  31.9510762  60.7885075  49.6616939  32.9622821
  59.6555743  52.2258078  23.5770835  59.5306883  51.4247818  23.0681781
  60.3134835  52.7204272  23.0884805  51.2763912  38.5806811  22.7547976
  50.5550497  39.1942778  22.6155449  52.0657167  39.1164576  22.6764621
  61.7190652  50.0267098  25.2050385  60.7720987  49.9072450  25.1328712
  62.0673425  49.1389596  25.2876647  58.7237085  49.8219815  21.4054738
  58.5762048  48.8936522  21.5862308  59.5490579  49.8439905  20.9211813
  52.5899329  38.4737882  17.2635230  52.9295402  39.0023803  16.5413838
  53.0371450  38.8118288  18.0393796  62.3271207  50.6448373  22.4919610
  63.2517754  50.4391235  22.3544061  62.1586510  50.3964774  23.4008952
  55.9359242  33.9424245  25.1665621  56.7585311  33.4684723  25.0444511
  56.1797306  34.7214729  25.6664307  54.5767477  36.9712503  15.4628522
  55.2975839  37.3493756  14.9592239  53.9532781  37.6901380  15.5663500
  58.7198599  37.6757652  16.3986855  58.9362214  38.5582290  16.0975683
  58.2392667  37.2843866  15.6692497  53.4597821  40.6343365  22.9757599
  53.3142402  40.9483668  23.8681881  52.9823024  41.2528266  22.4228498
  55.3194204  37.6245913  23.0238489  55.3055773  36.7287007  22.6870787
  56.0366632  37.6316577  23.6576775  57.1720334  38.0583254  25.0691616
  56.9138112  38.9800324  25.0675947  56.6405375  37.6613688  25.7592081
  62.1166523  51.1634041  17.8481702  62.2903401  50.5980463  17.0955554
  62.6095414  51.9634936  17.6661192  54.7231100  36.5060294  18.2926059
  54.8447011  35.5776940  18.4916947  54.4333142  36.5198980  17.3804375
  57.5922290  34.1915204  21.4292779  57.6143987  34.2554537  20.4744759
  58.0090349  33.3519713  21.6233285  67.9705914  43.9270464  19.4672002
  68.4137060  43.1777789  19.0691125  67.0932425  43.9180600  19.0845734
  63.1041696  50.4800805  14.9478600  63.7992600  51.1007498  15.1665915
  63.4464846  49.6296156  15.2230978  65.0033119  47.9300511  16.4765931
  65.5284443  48.2687783  15.7515251  64.9155471  46.9947526  16.2929065
  56.6653168  51.8434584  28.6055807  56.9740294  51.5983731  29.4778507
  57.4628650  52.0481223  28.1174678  56.6873780  53.9972494  20.8361184
  56.2478770  53.5048873  21.5294041  57.4381897  53.4545462  20.5953259
  49.1666119  50.1884035  20.8385812  49.9924138  49.8887807  20.4584456
  48.8160171  49.4191657  21.2875601  54.1347652  49.5410503  22.9083486
  53.5127661  48.8781208  22.6085714  54.8052519  49.5671635  22.2257133
  64.6927025  48.5633414  31.7817129  63.9022569  48.5457553  31.2421628
  64.4560379  49.1021708  32.5366165  64.8124900  45.4125881  29.0949857
  64.8622905  45.2475888  30.0365380  64.7038823  44.5453140  28.7047738
  53.6961159  48.0914426  16.3841946  53.8449279  48.7749891  15.7308619
  54.5027602  48.0719516  16.8991402  62.1028662  41.3956809  30.4109164
  63.0038525  41.2563274  30.1193162  62.1776637  41.5611264  31.3507341
  56.4371468  38.7723663  29.2562350  55.5674777  39.0657230  28.9844939
  56.6730948  39.3564108  29.9769614  66.3143097  47.8322822  29.3391879
  66.0227905  48.1952803  30.1755340  65.7015228  47.1189830  29.1605211
  67.5138779  45.3975702  21.8594449  68.3485670  45.8365506  22.0232009
  67.6497908  44.9214355  21.0402695  64.5630285  42.9555437  27.8071937
  65.0384407  43.1483083  26.9990788  63.6395850  43.0114623  27.5615321
  51.4513792  44.1179604  17.3903015  51.2059834  43.2141934  17.5883225
  51.6209706  44.1196754  16.4482493  59.1410502  34.9903280  26.7727771
  59.6592445  35.7264307  26.4474259  58.7865634  35.2967274  27.6074530
  59.3923096  31.4103563  22.2928667  59.6724849  30.7426752  22.9189094
  60.1773703  31.6032659  21.7803331  57.1956564  50.5862557  13.8553694
  56.6230531  51.2052744  13.4024166  57.7689358  51.1361919  14.3893616
  63.2631954  39.8321197  26.0400242  64.2149377  39.9319295  26.0612467
  63.0935404  39.0399465  26.5498327  61.2846333  36.9176780  26.2259643
  60.6896266  37.1981793  25.5306132  60.9996030  37.4070681  26.9976384
  60.4153824  50.8699707  14.9862276  61.3484497  50.8045269  15.1895151
  60.3277037  51.7055974  14.5276809  65.7420032  43.0527317  25.1542542
  65.7096352  42.1143317  25.3402226  66.3520655  43.1311353  24.4208367
  57.5803363  41.9223370  11.1969746  58.5262467  41.7929578  11.2658164
  57.2017608  41.1838031  11.6739174  65.8914520  39.8438360  25.2000825
  65.3753569  39.0596817  25.0130754  66.7754469  39.5157077  25.3647345
  63.5525247  33.5879376  21.1596638  63.3550068  33.2794464  22.0439970
  64.1624953  34.3141015  21.2894568  69.6411879  42.2551186  24.8923030
  68.9145042  42.1207151  24.2839522  69.2259166  42.5628015  25.6979748
  57.4642055  45.9741116  32.6570403  58.3845065  46.1519715  32.8510450
  57.4291638  45.0297161  32.5050102  55.7646280  39.8473346  11.1324631
  54.8577735  39.5506459  11.2087345  56.0422261  39.5503164  10.2658918
  57.3808346  34.3910236  17.2868873  56.5709074  34.0457321  17.6624119
  58.0692762  34.0817779  17.8756484  59.3098894  33.4688282  18.9093169
  59.8629932  33.8883736  19.5683192  59.5468980  32.5424031  18.9516125
  54.5345064  36.7060281  11.2736611  55.3964228  37.0315180  11.5332428
  54.7195409  35.9191777  10.7609676  62.6877701  35.5788808  18.4171834
  62.1076370  36.2373612  18.0349886  62.4213634  34.7566152  18.0059251
  61.1381267  34.9793865  20.6193154  61.6381046  35.0910400  19.8107473
  61.7816875  34.6754918  21.2593962  61.4702579  37.7388898  17.4728182
  60.5828434  38.0238549  17.2548377  61.8856568  37.5782661  16.6255459
  64.8217115  37.7635419  21.1882521  65.5977505  38.2531871  21.4607138
  64.0965249  38.1893473  21.6454391  67.2589674  38.4763038  22.2456462
  67.8534165  38.2358774  21.5349770  67.3316257  37.7570169  22.8729998
  49.4786829  52.3196649  22.5599627  49.3441297  51.5597050  21.9937625
  49.0618892  53.0437549  22.0928415  60.6145792  47.5033573  11.5676202
  61.3181643  47.7083575  12.1833857  59.8908441  48.0710335  11.8325285
  61.4443603  43.2543434  17.6878472  61.3878804  43.7111985  16.8486104
  61.9971945  42.4934119  17.5101315  65.2548409  39.0433166  18.5128591
  64.9985343  38.6429802  19.3436799  64.6301277  39.7576960  18.3878731
  69.5660746  41.7829239  21.0199883  69.0060304  41.8522428  21.7931445
  68.9604250  41.6070224  20.2999379  52.6355955  53.2165966  22.7718069
  52.5188339  54.1611399  22.6696759  51.8148402  52.9139528  23.1603868
  62.5232490  47.9416102  13.6174662  63.3578094  47.5097300  13.4352137
  62.3616833  47.7698116  14.5451556  62.1778382  44.4448215  14.9831001
  62.1227186  44.2792487  14.0419445  61.5524437  45.1524248  15.1393191
  59.4924289  46.7497127  34.3084564  60.3615449  46.9237779  33.9471199
  59.0131041  47.5691544  34.1860293  55.4874507  33.9456324  14.5616320
  55.4753177  34.8898164  14.7184590  56.3797929  33.7626470  14.2675781
  53.6610469  53.8694228  25.9873998  54.5637716  53.9017838  26.3040493
  53.4347839  52.9394679  26.0020333  55.4164071  52.6225215  22.6484076
  54.4659702  52.6227076  22.5348449  55.7196558  51.8757949  22.1320111
  59.3026627  30.5399101  18.8162256  58.5359023  29.9857588  18.9618939
  59.7137332  30.6120970  19.6776408  67.9606471  58.4113181  23.6491363
  67.6224983  58.2954246  22.7611898  68.8296239  58.0104346  23.6292369
  63.8193287  60.2648658  19.6388254  63.2558152  60.1738594  18.8704542
  63.7045682  59.4448562  20.1190747  68.4426254  59.5648033  29.6077569
  68.4314895  59.1700831  28.7358073  68.6046894  58.8314105  30.2011340
  61.3657719  61.7599849  22.4772475  62.1579011  61.4190674  22.0618774
  61.6054369  61.8694824  23.3974628  65.1633515  62.3485145  28.5556753
  64.8723381  63.2530775  28.4403419  65.7990500  62.3901672  29.2700822
  66.0889722  59.7261993  25.1458112  66.6853294  59.5018016  24.4315075
  66.1464694  58.9846739  25.7483560  63.5735882  58.4860357  21.5843251
  62.6486378  58.3536571  21.7920943  63.8220295  59.2654576  22.0813193
  60.9344693  58.1293631  22.4187040  61.0637074  58.3828109  23.3326452
  60.2542144  58.7221339  22.0991695  67.5961410  55.9718746  31.1738881
  66.8194744  56.5312666  31.1641746  68.2351973  56.4575529  31.6953751
  65.8507782  58.7804199  30.7356848  66.5922467  59.3189243  30.4591672
  65.1444768  59.4070488  30.8928400  67.6794192  55.8605947  26.7062567
  68.5255387  56.2845360  26.8497216  67.6192830  55.2039571  27.4001130
  70.3858329  52.6766748  23.9457578  69.5242808  52.9748001  24.2374315
  70.4120764  52.8937147  23.0138611  64.0943980  60.7680420  23.2911147
  64.6645337  61.1967688  22.6528631  64.6852091  60.4863005  23.9895332
  64.5869146  55.9343847  31.5372158  63.9567807  56.6160128  31.7707555
  64.4805234  55.8226929  30.5925296  59.8814118  55.6015644  22.4638082
  59.0913172  55.8573172  21.9878193  60.3725366  56.4163981  22.5690123
  61.8328864  55.9660223  19.4221559  61.0360027  56.0778917  19.9405055
  61.6054456  56.3046875  18.5562450  58.1651821  55.8546134  24.8953073
  58.4159860  56.7393144  25.1610649  58.7011370  55.6750735  24.1228165
  63.8649889  50.2364613  33.8997409  63.4716834  49.6830812  34.5745053
  64.6816029  50.5475192  34.2903927  66.7817850  51.6522492  31.4917666
  67.5227563  52.2529646  31.4122128  67.0135773  50.9100130  30.9335708
  61.9259188  56.8378860  29.7695895  61.8112703  55.9364117  30.0702994
  61.0703706  57.0842556  29.4180712  67.5605318  62.5743529  30.2388306
  68.0933655  61.8131818  30.0087614  67.0319399  62.2817181  30.9812460
  58.7960863  60.0037126  18.5870550  59.6336085  60.4134134  18.3704257
  58.9739131  59.0636568  18.5570743  68.2772406  52.5161907  19.3339621
  67.4214003  52.1268758  19.1545260  68.6899358  52.5953868  18.4739406
  69.8071553  50.0508251  23.7331181  69.3036349  50.0138386  22.9198986
  70.1002160  50.9600993  23.7927837  66.0514439  50.1346980  22.7397362
  66.9167436  49.9389789  22.3803252  66.1191948  49.9057332  23.6666719
  63.6576758  52.3649188  20.1113729  64.2320510  52.1424370  19.3786922
  64.2447740  52.4337883  20.8642330  65.9599426  49.2390437  18.8388799
  65.3063838  48.9239454  18.2145413  65.9179900  48.6166178  19.5648622
  69.1937166  55.7272371  23.1636446  68.2759727  55.9487318  23.0058134
  69.6097310  55.8018681  22.3048154  58.8187034  57.3427841  19.2581283
  58.6211434  56.7497202  18.5332350  58.2633698  57.0380051  19.9757222
  66.7983758  57.2350948  21.3775876  66.8532368  56.2824784  21.3018353
  65.9874960  57.3910387  21.8617175  64.7376118  55.8528007  19.1366255
  63.9243984  56.1522178  19.5431447  65.2335112  55.4583696  19.8540737
  64.2290193  53.4246363  24.7527490  64.8689572  53.2835122  24.0550453
  63.3967723  53.1380876  24.3766092  65.0050497  62.7248793  20.8662482
  65.7991095  62.2299113  20.6645057  64.2942189  62.1966656  20.5030188
  61.3133260  56.8691875  16.9422235  60.3830848  56.8076331  17.1592197
  61.4090732  56.3467828  16.1458876  61.2318809  53.3946688  19.5300477
  61.4925626  54.3092021  19.4209637  62.0535982  52.9271130  19.6797090
  62.7043735  54.8084445  26.6999301  63.3766788  54.6001807  26.0511950
  61.8773521  54.6106531  26.2604534  68.6069307  51.4346386  28.7164962
  67.9597222  52.1336336  28.6229439  69.3770322  51.8682530  29.0841210
  68.7833441  59.2727151  26.7761782  69.7125501  59.4238310  26.6030749
  68.3624471  59.3611172  25.9210428  63.1071232  58.0827048  27.4601738
  62.9691030  57.3507287  28.0613278  64.0176155  57.9935948  27.1785926
  65.7353532  57.7947007  26.9485418  66.4453151  57.1540200  26.9072037
  65.6922841  58.0459902  27.8711599  64.4482466  54.7812225  28.7681058
  63.9119823  54.3302964  29.4202654  63.8599175  54.9158134  28.0251522
  55.3786866  59.0278036  21.4249028  56.0657905  58.7139766  20.8370044
  55.2234994  59.9319401  21.1516280  60.1821588  53.9168233  25.8534052
  60.0979776  53.3093902  25.1184462  59.3604294  54.4077251  25.8543548
  70.3545302  52.4021796  21.2204247  70.8514001  51.6491759  20.9005317
  69.5832283  52.4386113  20.6547456  66.9380270  54.5439179  20.9475932
  66.5678058  53.9910220  21.6356837  67.4339363  53.9397313  20.3950932
  68.6158328  58.3001093  32.3549537  67.9398965  58.1995222  33.0251912
  69.4385962  58.1440307  32.8185534  60.3637187  64.5373029  24.9762052
  60.9490624  63.7916717  25.1089957  60.1662025  64.8476986  25.8598716
  54.9554842  57.1078630  23.6966496  54.9938941  56.5742220  24.4903614
  54.4495134  56.5813835  23.0777473  62.3345604  51.9543170  27.1929038
  62.3986930  52.8158001  26.7806436  62.2712724  51.3417172  26.4601396
  61.8097876  54.0266303  30.8402072  62.4369915  53.6443380  31.4539596
  60.9525795  53.8080505  31.2057765  58.5863419  55.8342732  16.7720427
  58.8816860  54.9253410  16.7187481  57.6851455  55.8130471  16.4501429
  62.1157666  53.9098728  22.7547976  61.3944252  54.5234696  22.6155449
  62.9050922  54.4456493  22.6764621  64.9183980  51.2453155  29.0288627
  65.4418382  51.4915451  29.7914937  64.6996313  52.0773190  28.6091765
  60.3151261  53.5156830  16.8959752  59.9863967  52.6354208  16.7134858
  60.6690631  53.4604498  17.7836141  63.4293084  53.8029799  17.2635230
  63.7689156  54.3315721  16.5413838  63.8765204  54.1410205  18.0393796
  66.1236525  52.1866850  26.7138298  65.7833345  51.3874663  27.1158978
  65.4175531  52.4868561  26.1415131  66.7752997  49.2716162  25.1665621
  67.5979066  48.7976641  25.0444511  67.0191060  50.0506646  25.6664307
  65.4161231  52.3004421  15.4628522  66.1369594  52.6785674  14.9592239
  64.7926535  53.0193298  15.5663500  64.2991575  55.9635283  22.9757599
  64.1536156  56.2775586  23.8681881  63.8216779  56.5820183  22.4228498
  66.1587958  52.9537831  23.0238489  66.1449527  52.0578924  22.6870787
  66.8760386  52.9608495  23.6576775  68.0114089  53.3875171  25.0691616
  67.7531867  54.3092242  25.0675947  67.4799129  52.9905606  25.7592081
  58.7737238  58.5040627  25.9145261  58.2290706  59.2800435  26.0465535
  59.6516587  58.8511432  25.7564382  65.5624854  51.8352211  18.2926059
  65.6840765  50.9068858  18.4916947  65.2726897  51.8490897  17.3804375
  68.4316045  49.5207122  21.4292779  68.4537741  49.5846455  20.4744759
  68.8484104  48.6811630  21.6233285  59.5603259  57.6310524  28.8075417
  58.8184995  57.7793159  29.3940048  59.2396004  57.8918789  27.9442167
  60.0059873  65.5175952  20.8385812  60.8317893  65.2179724  20.4584456
  59.6553925  64.7483575  21.2875601  58.2068478  63.4362279  21.7974746
  57.3700386  63.0084453  21.6158747  58.1792124  63.6294722  22.7345537
  65.0465934  53.3484209  32.5015992  65.0954089  54.2246332  32.1193761
  65.5888448  52.8061602  31.9287635  67.2765222  54.1015581  29.2562350
  66.4068532  54.3949147  28.9844939  67.5124703  54.6856026  29.9769614
  69.9804256  50.3195198  26.7727771  70.4986200  51.0556225  26.4474259
  69.6259389  50.6259191  27.6074530  61.5603194  55.1799879  14.8889177
  60.8672439  55.2544234  14.2329213  61.3154946  54.4160223  15.4110694
  68.3035810  61.3033033  32.6570403  69.2238819  61.4811632  32.8510450
  68.2685393  60.3589079  32.5050102  57.5217975  56.4971627  21.5823678
  57.2020759  55.6436935  21.2898052  56.9751403  56.7120205  22.3381645
  61.2997882  59.2134068  25.2993184  61.5183892  60.1451176  25.3181218
  61.7123656  58.8542042  26.0847988  68.2202100  49.7202153  17.2868873
  67.4102828  49.3749238  17.6624119  68.9086517  49.4109697  17.8756484
  70.1492648  48.7980200  18.9093169  70.7023687  49.2175654  19.5683192
  70.3862735  47.8715948  18.9516125  66.1725748  54.7867274  34.6895933
  66.0722474  55.7361631  34.6208024  65.9547290  54.4585513  33.8172003
  57.3906235  60.1174539  23.5516799  56.6969706  59.7028491  23.0386754
  58.1379226  60.1595075  22.9550218  66.0357018  58.2164413  33.5060995
  65.5524099  59.0164773  33.7124884  66.1217957  58.2272358  32.5528439
  59.3042977  60.0492792  21.4282814  59.2813665  60.1480480  20.4764697
  59.6143614  60.8957943  21.7499980  61.9630355  62.1068947  25.5429429
  62.9173609  62.0752890  25.4759360  61.7642879  61.6459571  26.3579655
  62.5529737  60.6770063  28.1100226  63.3722626  61.1714142  28.1335064
  62.8266545  59.7602032  28.0817794  57.8064651  55.0108197  28.8092423
  58.4523515  54.5007151  29.2979649  57.5981803  55.7476879  29.3835849
  66.3268262  49.2748242  14.5616320  66.3146932  50.2190082  14.7184590
  67.2191684  49.0918387  14.2675781  70.1420381  45.8691019  18.8162256
  69.3752777  45.3149505  18.9618939  70.5531086  45.9412887  19.6776408
  62.1462142  52.1575814  32.9067438  63.0093604  51.8012619  33.1170762
  61.5727553  51.8189709  33.5942842  34.8399848   0.6254390  13.3152460
  35.3918157   0.7886011  14.0801545  35.1806042   1.2158828  12.6432485
  49.4729257   4.8064040  10.4375145  50.1107667   4.6870788   9.7338485
  49.3550100   5.7544884  10.4963097  46.2818963   4.7591468  10.3736670
  45.9437475   4.6432533   9.4857205  47.1508732   4.3582633  10.3537676
  46.7638746   5.9126320  16.3322875  46.7527387   5.5179118  15.4603379
  46.9259386   5.1792393  16.9256647  39.6870211   8.1078136   9.2017781
  40.4791503   7.7668961   8.7864081  39.9266861   8.2173111  10.1219935
  43.4846008   8.6963432  15.2802059  43.1935874   9.6009063  15.1648726
  44.1202992   8.7379960  15.9946129  44.4102214   6.0740280  11.8703419
  45.0065787   5.8496303  11.1560382  44.4677186   5.3325026  12.4728867
  48.4435893   8.3824847  12.2751853  48.1436616   9.2849886  12.1667660
  48.0986952   8.1157031  13.1273006  41.8948374   4.8338644   8.3088558
  40.9698871   4.7014858   8.5166249  42.1432787   5.6132863   8.8058500
  43.4256672  15.1469168   5.2422821  43.3480702  16.0976993   5.3211301
  42.8218316  14.8015040   5.8997747  45.9173902   2.3197033  17.8984188
  45.1407236   2.8790953  17.8887052  46.5564465   2.8053816  18.4199058
  44.1720275   5.1282487  17.4602155  44.9134959   5.6667531  17.1836978
  43.4657260   5.7548775  17.6173707  49.6475614   7.2711627  16.0574316
  50.0558970   6.8294038  15.3128949  48.9252876   6.6964255  16.3108509
  49.9704429   7.8312818   9.8126605  49.3413291   7.9958532   9.1102673
  49.5830091   8.2454427  10.5837569  51.1044592   6.4127215  13.7666312
  51.3161488   7.0558974  13.0900693  51.0574341   5.5789531  13.2988242
  45.5232391   7.5687226   7.0776690  45.9870736   7.8474929   6.2881313
  45.2589189   6.6670670   6.8949781  42.4156472   7.1158707  10.0156453
  42.9857829   7.5445976   9.3773938  43.0064584   6.8341292  10.7140639
  42.9081638   2.2822135  18.2617465  42.2780299   2.9638416  18.4952862
  42.8017726   2.1705216  17.3170603  52.2190420   9.2899170  11.9388670
  53.0407864   8.8879357  11.6571351  52.2152823   9.1867404  12.8904786
  45.9847024   8.8383213  14.0949380  46.0491456   9.3003620  14.9307552
  45.2757948   8.2080578  14.2231690  45.6995041  10.5051321   3.9628361
  45.5640716  11.3502856   4.3913208  46.2404854  10.7070598   3.1994294
  40.9619323  11.1392515   6.6179039  41.1385952  12.0610480   6.4300023
  41.7576157  10.8250934   7.0473419  40.2471680   3.1857147  16.4941202
  40.1325195   2.2842404  16.7948301  39.3916198   3.4320844  16.1426019
  47.3263518  11.1274887  18.0928703  46.8827372  10.3411266  17.7749607
  47.9880731  11.3154038  17.4272593  42.0850639  12.6570689  12.6189381
  42.6358064  12.5287752  11.8466375  41.2462115  12.9565578  12.2684274
  49.4244756  11.4077687  16.1210104  49.4063231  12.2286568  15.6290373
  50.3464676  11.2831762  16.3460245  45.8817810   8.9221817  16.9633612
  46.4146147   8.1610105  16.7332920  45.3531891   8.6295468  17.7057767
  52.2263369   6.2456830   9.5919471  51.5687043   6.9356091   9.6799599
  53.0303768   6.6353262   9.9353457  50.2463563  11.4183700   6.7052373
  50.5386537  11.9788758   5.9864739  50.7562184  11.7112261   7.4605532
  45.1196250   3.5829235   8.1021183  45.1744860   2.6303071   8.0263659
  44.3087452   3.7388674   8.5862481  45.2097188  12.1964052   7.7945826
  45.1673367  12.4224898   6.8654358  46.1259887  11.9627426   7.9431627
  43.3262989   9.0727081   7.5907789  44.1203587   8.5777401   7.3890364
  42.6154681   8.5444944   7.2275495  48.1457833  11.4545176  11.9420157
  48.1994856  12.0236112  12.7097873  47.2772615  11.6247061  11.5774194
  41.0256227   1.1562732  13.4244608  41.6979280   0.9480094  12.7757257
  40.1986013   0.9584818  12.9849840  55.2745488   7.8966783  12.9419941
  55.4681378   8.8012593  13.1879216  55.1746106   7.4374202  13.7758527
  50.3360597   8.0473525  18.5160822  50.1846103   7.8184077  17.5990906
  50.3265276   9.0044127  18.5292167  47.1045933   5.6205438  13.5007089
  48.0337993   5.7716598  13.3276056  46.6836963   5.7089459  12.6455735
  45.9034265   9.6456103  11.2705626  45.7645351   9.2774887  12.1431564
  45.1148861  10.1603742  11.0989584  46.4982417  14.7465199   2.6131163
  46.6734173  14.2753242   3.4276785  45.8115205  15.3730965   2.8412423
  47.4539480   9.0237705   8.6594464  47.1189313   8.9838475   9.5552114
  46.9543426   8.3582421   8.1864874  41.4283724   4.4305335  14.1847045
  41.2903522   3.6985574  14.7858584  42.3388648   4.3414235  13.9031233
  44.0566025   4.1425295  13.6730725  44.7665643   3.5018487  13.6317343
  44.0135333   4.3938189  14.5956906  52.0452803  11.0792648  16.5937304
  51.9865350  10.3951868  15.9267887  52.4472322  11.8211638  16.1417930
  42.7694959   1.1290512  15.4926364  42.2332316   0.6781251  16.1447961
  42.1811667   1.2636421  14.7496829  41.0643502  17.8954562   9.3871023
  41.3040100  18.5273086  10.0650041  40.2212699  17.5442602   9.6736382
  52.0470211   9.0432232  14.8251284  51.1596989   8.7058154  14.9477682
  52.6168762   8.3115263  15.0620049  45.5771364  13.7033684  11.7912527
  45.5041536  14.5088656  12.3031831  45.1348757  13.9025650  10.9660548
  45.3661144  12.9405454   5.3015348  44.5828666  13.4827134   5.3953573
  46.0653889  13.4579434   5.7009590  48.0370048  13.6020518  13.9470685
  48.7498020  14.2367983  13.8746587  47.5460076  13.6984384  13.1310687
  43.0881961  11.3514962  14.7676256  43.7891421  11.9851445  14.9205651
  42.6177076  11.6929693  14.0071896  47.8490421  13.9419262   6.6956977
  48.0312815  13.1240918   7.1584729  48.6723407  14.1586955   6.2581867
  48.1832586  12.8687447   3.9572025  48.7120353  12.3579902   3.3442188
  48.4460806  12.5529978   4.8217558  46.9370820   4.6479380  19.0794844
  46.2611457   4.5473510  19.7497219  47.7598454   4.4918594  19.5430841
  38.6849679  10.8851317  11.7007359  39.2703116  10.1395005  11.8335263
  38.4874518  11.1955273  12.5844023  41.5388334  13.9202564   6.7169801
  40.8698710  14.4048692   6.2333841  41.4001204  14.1671785   7.6313180
  45.6793603  15.9546308  13.3152460  46.2311911  16.1177929  14.0801545
  46.0199796  16.5450745  12.6432485  50.5304477  10.7807565  19.1701114
  51.0744381  11.3937523  18.6756069  49.9491322  11.3387144  19.6868127
  48.8161990  13.9028283  10.3016142  48.6913130  13.1018023   9.7927087
  49.4741081  14.3974477   9.8130112  50.8796899  11.7037303  11.9295692
  49.9327234  11.5842654  11.8574019  51.2279672  10.8159801  12.0121953
  47.8843332  11.4990019   8.1300044  47.7368294  10.5706727   8.3107614
  48.7096825  11.5210110   7.6457119  51.4877454  12.3218578   9.2164917
  52.4124001  12.1161440   9.0789368  51.3192757  12.0734979  10.1254258
  42.6204068   2.3113570   9.7002906  42.4748648   2.6253873  10.5927188
  42.1429271   2.9298471   9.1473805  37.0949730   4.8518915  12.6390567
  36.5503198   5.6278723  12.7710842  37.9729080   5.1989719  12.4809689
  37.8815752   3.9788811  15.5320724  37.1397488   4.1271446  16.1185355
  37.5608496   4.2397077  14.6687474  45.8259414  13.5204789  15.3301114
  46.1346541  13.2753936  16.2023814  46.6234896  13.7251428  14.8419984
  45.8480026  15.6742699   7.5606491  45.4085017  15.1819078   8.2539347
  46.5988143  15.1315667   7.3198566  38.3272365  11.8654240   7.5631119
  39.1530385  11.5658012   7.1829762  37.9766417  11.0961862   8.0120907
  43.2953899  11.2180708   9.6328792  42.6733908  10.5551413   9.3331020
  43.9658765  11.2441840   8.9502440  36.5280970   9.7840566   8.5220052
  35.6912879   9.3562741   8.3404054  36.5004616   9.9773010   9.4590844
  53.8533272  10.2403619  18.5062435  53.0628815  10.2227758  17.9666935
  53.6166626  10.7791913  19.2611472  53.9731147   7.0896086  15.8195164
  54.0229152   6.9246093  16.7610687  53.8645070   6.2223345  15.4293045
  55.4749344   9.5093027  16.0637186  55.1834152   9.8723008  16.9000646
  54.8621475   8.7960035  15.8850518  46.6248302   7.6511321  19.3815710
  47.5451311   7.8289920  19.5755756  46.5897885   6.7067366  19.2295409
  39.6210375   5.5612355  12.0238491  39.8396384   6.4929463  12.0426525
  40.0336148   5.2020330  12.8093295  44.3569510   4.5642700  20.2306302
  43.8736592   5.3643060  20.4370191  44.4430449   4.5750645  19.2773745
  40.2842847   8.4547235  12.2674735  41.2386101   8.4231177  12.2004667
  40.0855371   7.9937858  13.0824961  40.8742230   7.0248351  14.8345533
  41.6935118   7.5192429  14.8580370  41.1479037   6.1080319  14.8063100
  38.6393076  13.9966854   9.2844933  38.5047544  13.2367255   8.7182931
  38.2225138  14.7207754   8.8173722  41.7962202  14.8936171   9.4963376
  41.6794586  15.8381604   9.3942066  40.9754648  14.5909733   9.8849175
  36.1277144   1.3586485  15.5337730  36.7736007   0.8485438  16.0224955
  35.9194295   2.0955166  16.1081155  48.6530536   8.4267332  21.0329871
  49.5221696   8.6007984  20.6716506  48.1737287   9.2461749  20.9105600
  42.8216716  15.5464433  12.7119304  43.7243963  15.5788043  13.0285799
  42.5954086  14.6164884  12.7265640  44.5770318  14.2995420   9.3729383
  43.6265949  14.2997281   9.2593755  44.8802804  13.5528154   8.8565417
  60.3123012  20.1355958  10.4375145  60.9501422  20.0162705   9.7338485
  60.1943855  21.0836802  10.4963097  57.1212718  20.0883386  10.3736670
  56.7831229  19.9724451   9.4857205  57.9902486  19.6874551  10.3537676
  52.9799534  21.9418862   6.3633561  52.4164399  21.8508799   5.5949849
  52.8651929  21.1218767   6.8436053  57.6032501  21.2418238  16.3322875
  57.5921142  20.8471036  15.4603379  57.7653140  20.5084310  16.9256647
  50.5263966  23.4370054   9.2017781  51.3185258  23.0960879   8.7864081
  50.7660616  23.5465029  10.1219935  52.4854720  22.6978967   2.0735160
  53.2585596  22.1507954   1.9348036  52.8380118  23.5623217   2.2849622
  54.3239762  24.0255350  15.2802059  54.0329628  24.9300980  15.1648726
  54.9596746  24.0671877  15.9946129  55.2495969  21.4032198  11.8703419
  55.8459541  21.1788220  11.1560382  55.3070940  20.6616944  12.4728867
  56.8848827  20.2209886   5.6124674  56.5207034  19.6940507   6.3237596
  57.7415943  19.8308356   5.4391160  59.2829647  23.7116765  12.2751853
  58.9830370  24.6141804  12.1667660  58.9380707  23.4448948  13.1273006
  52.7342129  20.1630562   8.3088558  51.8092625  20.0306776   8.5166249
  52.9826542  20.9424781   8.8058500  50.0950940  19.8063835   9.1432347
  50.2243321  20.0598314  10.0571758  49.4148391  20.3991543   8.8237002
  54.2650427  30.4761085   5.2422821  54.1874457  31.4268911   5.3211301
  53.6612071  30.1306958   5.8997747  56.7567657  17.6488951  17.8984188
  55.9800991  18.2082871  17.8887052  57.3958220  18.1345734  18.4199058
  55.0114029  20.4574404  17.4602155  55.7528713  20.9959448  17.1836978
  54.3051015  21.0840693  17.6173707  60.4869369  22.6003545  16.0574316
  60.8952725  22.1585955  15.3128949  59.7646630  22.0256172  16.3108509
  56.8400439  17.5376151  13.4307873  57.6861634  17.9615565  13.5742522
  56.7799076  16.8809776  14.1246436  60.8098183  23.1604735   9.8126605
  60.1807046  23.3250449   9.1102673  60.4223845  23.5746345  10.5837569
  59.9899884  15.1980520  15.0889047  59.7460816  15.9522580  14.5523323
  60.2659815  15.5765867  15.9236294  61.9438347  21.7419132  13.7666312
  62.1555242  22.3850892  13.0900693  61.8968095  20.9081449  13.2988242
  56.3626145  22.8979143   7.0776690  56.8264491  23.1766846   6.2881313
  56.0982943  21.9962588   6.8949781  53.2550226  22.4450625  10.0156453
  53.8251583  22.8737893   9.3773938  53.8458338  22.1633210  10.7140639
  55.2995031  19.0202296   3.8866255  56.0019075  19.4723339   4.3540182
  54.9675660  18.3786115   4.5146148  53.7475393  17.6114052  18.2617465
  53.1174053  18.2930333  18.4952862  53.6411481  17.4997134  17.3170603
  49.0420365  17.2785848   9.1883389  48.2519419  17.5343377   8.7123500
  49.5331613  18.0934186   9.2935429  63.0584175  24.6191088  11.9388670
  63.8801619  24.2171275  11.6571351  63.0546578  24.5159322  12.8904786
  50.9935111  17.6430428   6.1466866  50.1966274  17.7549122   6.6650361
  50.7660703  17.9817080   5.2807756  56.8240778  24.1675131  14.0949380
  56.8885211  24.6295538  14.9307552  56.1151702  23.5372496  14.2231690
  47.3258068  17.5316339  11.6198380  47.5766107  18.4163349  11.8855956
  47.8617617  17.3520940  10.8473472  56.5388796  25.8343238   3.9628361
  56.4034471  26.6794774   4.3913208  57.0798608  26.0362516   3.1994294
  53.0256136  11.9134818  20.6242716  52.6323081  11.3601017  21.2990360
  53.8422276  12.2245397  21.0149233  49.9918193  23.3518676   4.5356286
  50.5042714  24.1461927   4.6861850  50.6440906  22.6544967   4.4689887
  51.8013078  26.4684433   6.6179039  51.9779706  27.3902397   6.4300023
  52.5969912  26.1542852   7.0473419  55.9424097  13.3292697  18.2162972
  56.6833810  13.9299850  18.1367435  56.1742019  12.5870335  17.6581015
  51.0865435  18.5149065  16.4941202  50.9718950  17.6134322  16.7948301
  50.2309952  18.7612761  16.1426019  58.1657272  26.4566805  18.0928703
  57.7221126  25.6703183  17.7749607  58.8274486  26.6445955  17.4272593
  52.9244393  27.9862606  12.6189381  53.4751819  27.8579670  11.8466375
  52.0855869  28.2857496  12.2684274  60.2638510  26.7369605  16.1210104
  60.2456986  27.5578486  15.6290373  61.1858430  26.6123680  16.3460245
  56.7211564  24.2513734  16.9633612  57.2539901  23.4902022  16.7332920
  56.1925646  23.9587386  17.7057767  47.9567110  21.6807331   5.3115856
  48.7942332  22.0904339   5.0949564  48.1345378  20.7406773   5.2816050
  55.2120686  11.8117185   9.4642669  56.0773682  11.6159994   9.1048558
  55.2798195  11.5827537  10.3912026  58.0864277  23.3799727   4.4752424
  57.5585639  22.6452486   4.1625662  57.5851780  24.1574403   4.2292393
  63.0657123  21.5748747   9.5919471  62.4080798  22.2648009   9.6799599
  63.8697522  21.9645179   9.9353457  52.8183005  14.0419393   6.8359036
  53.3926757  13.8194575   6.1032229  53.4053987  14.1108088   7.5887637
  58.3543413  17.4042576   9.8881753  57.4365974  17.6257523   9.7303441
  58.7703557  17.4788886   9.0293460  61.0857317  26.7475618   6.7052373
  61.3780292  27.3080675   5.9864739  61.5955938  27.0404179   7.4605532
  47.9793281  19.0198046   5.9826590  47.7817681  18.4267407   5.2577656
  47.4239945  18.7150256   6.7002528  55.9590005  18.9121153   8.1021183
  56.0138615  17.9594989   8.0263659  55.1481207  19.0680592   8.5862481
  53.8982365  17.5298212   5.8611562  53.0850230  17.8292383   6.2676754
  54.3941359  17.1353901   6.5786044  56.0490943  27.5255969   7.7945826
  56.0067121  27.7516816   6.8654358  56.9653642  27.2919344   7.9431627
  59.4956576  17.9940037  14.6926456  59.8505964  18.2211510  15.5520921
  60.1428708  18.3258414  14.0703711  53.3896440  15.1016568  11.4772797
  54.0295819  14.9605327  10.7795760  52.5573970  14.8151081  11.1011399
  54.1656743  24.4018998   7.5907789  54.9597342  23.9069318   7.3890364
  53.4548436  23.8736861   7.2275495  58.9851588  26.7837094  11.9420157
  59.0388610  27.3528030  12.7097873  58.1166369  26.9538979  11.5774194
  50.4739507  18.5462080   3.6667542  49.5437095  18.4846535   3.8837504
  50.5696979  18.0238033   2.8704183  50.3925056  15.0716893   6.2545783
  50.6531873  15.9862226   6.1454944  51.2142228  14.6041335   6.4042396
  51.8649981  16.4854650  13.4244608  52.5373035  16.2772012  12.7757257
  51.0379768  16.2876736  12.9849840  66.1139243  23.2258700  12.9419941
  66.3075133  24.1304511  13.1879216  66.0139861  22.7666119  13.7758527
  57.7675553  13.1116591  15.4410269  57.1203468  13.8106541  15.3474745
  58.5376569  13.5452735  15.8086517  61.1754351  23.3765443  18.5160822
  61.0239858  23.1475995  17.5990906  61.1659031  24.3336044  18.5292167
  57.9439688  20.9497356  13.5007089  58.8731748  21.1008515  13.3276056
  57.5230718  21.0381377  12.6455735  56.7428019  24.9748020  11.2705626
  56.6039105  24.6066805  12.1431564  55.9542616  25.4895660  11.0989584
  57.3376171  30.0757117   2.6131163  57.5127927  29.6045160   3.4276785
  56.6508959  30.7022883   2.8412423  58.2933235  24.3529623   8.6594464
  57.9583067  24.3130393   9.5552114  57.7937180  23.6874339   8.1864874
  52.2677479  19.7597253  14.1847045  52.1297276  19.0277492  14.7858584
  53.1782402  19.6706153  13.9031233  54.8959779  19.4717212  13.6730725
  55.6059398  18.8310404  13.6317343  54.8529087  19.7230107  14.5956906
  62.8846558  26.4084566  16.5937304  62.8259104  25.7243786  15.9267887
  63.2866076  27.1503556  16.1417930  53.6088713  16.4582430  15.4926364
  53.0726070  16.0073169  16.1447961  53.0205422  16.5928339  14.7496829
  51.9037257  33.2246479   9.3871023  52.1433855  33.8565004  10.0650041
  51.0606453  32.8734519   9.6736382  62.8863965  24.3724150  14.8251284
  61.9990744  24.0350071  14.9477682  63.4562516  23.6407181  15.0620049
  44.5393112  20.7048241   8.1494335  45.2264152  20.3909971   7.5615350
  44.3841241  21.6089606   7.8761586  49.3427834  15.5938438  12.5779359
  49.2586023  14.9864107  11.8429769  48.5210541  16.0847456  12.5788855
  56.4165119  29.0325602  11.7912527  56.3435290  29.8380573  12.3031831
  55.9742512  29.2317568  10.9660548  56.2054898  28.2697372   5.3015348
  55.4222420  28.8119052   5.3953573  56.9047643  28.7871352   5.7009590
  58.8763802  28.9312436  13.9470685  59.5891774  29.5659901  13.8746587
  58.3853831  29.0276302  13.1310687  56.0986517  16.2209384   7.6721238
  55.7284305  15.6680425   8.3602144  56.5945609  15.6167518   7.1196238
  53.9275716  26.6806879  14.7676256  54.6285175  27.3143362  14.9205651
  53.4570831  27.0221611  14.0071896  61.7277002  19.2351487  12.5928807
  61.0748452  19.4827394  11.9381259  62.1057381  18.4215625  12.2591284
  58.6884175  29.2711180   6.6956977  58.8706570  28.4532836   7.1584729
  59.5117161  29.4878872   6.2581867  59.0226341  28.1979365   3.9572025
  59.5514107  27.6871820   3.3442188  59.2854561  27.8821895   4.8217558
  57.7764575  19.9771298  19.0794844  57.1005212  19.8765427  19.7497219
  58.5992208  19.8210512  19.5430841  49.5243434  26.2143234  11.7007359
  50.1096870  25.4686922  11.8335263  49.3268272  26.5247191  12.5844023
  52.3782089  29.2494482   6.7169801  51.7092464  29.7340609   6.2333841
  52.2394959  29.4963702   7.6313180  44.1161088  18.7848835  10.4211802
  44.1545188  18.2512425  11.2148920  43.6101381  18.2584040   9.8022779
  56.5187357  31.2838225  13.3152460  57.0705666  31.4469847  14.0801545
  56.8593551  31.8742663  12.6432485  51.4951851  13.6313375  13.9174344
  51.5593177  14.4928206  13.5051742  51.4318971  13.0187377  13.1846703
  50.9704123  15.7036508  17.5647379  51.5976162  15.3213585  18.1784903
  50.1132042  15.4850710  17.9303071  61.3698232  26.1099483  19.1701114
  61.9138136  26.7229441  18.6756069  60.7885077  26.6679061  19.6868127
  47.7469666  17.5112937   3.4965734  48.0423107  16.6023615   3.4432787
  46.8457702  17.4900676   3.1746736  59.6555745  29.2320201  10.3016142
  59.5306884  28.4309941   9.7927087  60.3134836  29.7266394   9.8130112
  51.2763913  15.5868933   9.4793282  50.5550499  16.2004901   9.3400755
  52.0657169  16.1226698   9.4009928  61.7190653  27.0329221  11.9295692
  60.7720989  26.9134572  11.8574019  62.0673426  26.1451719  12.0121953
  54.0790227  12.9223360  15.7533934  54.6024628  13.1685656  16.5160243
  53.8602560  13.7543395  15.3337071  49.4757508  15.1927034   3.6205059
  49.1470214  14.3124413   3.4380165  49.8296878  15.1374703   4.5081448
  58.7237086  26.8281937   8.1300044  58.5762049  25.8998645   8.3107614
  59.5490580  26.8502028   7.6457119  62.3271208  27.6510496   9.2164917
  63.2517756  27.4453357   9.0789368  62.1586512  27.4026897  10.1254258
  55.2842772  13.8637055  13.4383604  54.9439592  13.0644868  13.8404284
  54.5781778  14.1638766  12.8660438  55.9359243  10.9486367  11.8910927
  56.7585313  10.4746846  11.7689818  56.1797307  11.7276851  12.3909614
  53.4597822  17.6405488   9.7002906  53.3142403  17.9545791  10.5927188
  52.9823026  18.2590388   9.1473805  55.3194205  14.6308036   9.7483796
  55.3055774  13.7349129   9.4116094  56.0366633  14.6378700  10.3822082
  57.1720336  15.0645376  11.7936923  56.9138114  15.9862447  11.7921253
  56.6405376  14.6675811  12.4837387  47.9343484  20.1810832  12.6390567
  47.3896952  20.9570640  12.7710842  48.8122834  20.5281637  12.4809689
  48.7209506  19.3080729  15.5320724  47.9791242  19.4563364  16.1185355
  48.4002250  19.5688994  14.6687474  56.6653169  28.8496707  15.3301114
  56.9740295  28.6045854  16.2023814  57.4628651  29.0543345  14.8419984
  56.6873781  31.0034617   7.5606491  56.2478771  30.5110995   8.2539347
  57.4381898  30.4607584   7.3198566  49.1666120  27.1946157   7.5631119
  49.9924140  26.8949929   7.1829762  48.8160172  26.4253780   8.0120907
  54.1347653  26.5472626   9.6328792  53.5127662  25.8843331   9.3331020
  54.8052520  26.5733758   8.9502440  47.3674725  25.1132484   8.5220052
  46.5306633  24.6854658   8.3404054  47.3398370  25.3064927   9.4590844
  54.2072180  15.0254414  19.2261298  54.2560336  15.9016536  18.8439068
  54.7494695  14.4831807  18.6532942  64.6927026  25.5695537  18.5062435
  63.9022570  25.5519676  17.9666935  64.4560381  26.1083831  19.2611472
  64.8124901  22.4188003  15.8195164  64.8622906  22.2538011  16.7610687
  64.7038825  21.5515262  15.4293045  53.6961160  25.0976549   3.1087253
  53.8449280  25.7812013   2.4553926  54.5027603  25.0781639   3.6236709
  62.1028664  18.4018931  17.1354471  63.0038526  18.2625396  16.8438468
  62.1776638  18.5673386  18.0752648  56.4371469  15.7785786  15.9807657
  55.5674778  16.0719352  15.7090246  56.6730949  16.3626231  16.7014921
  66.3143098  24.8384945  16.0637186  66.0227906  25.2014925  16.9000646
  65.7015229  24.1251953  15.8850518  64.5630286  19.9617559  14.5317243
  65.0384408  20.1545206  13.7236095  63.6395852  20.0176745  14.2860627
  51.4513793  21.1241727   4.1148322  51.2059835  20.2204057   4.3128532
  51.6209707  21.1258877   3.1727800  59.1410503  11.9965403  13.4973077
  59.6592447  12.7326430  13.1719566  58.7865636  12.3029396  14.3319837
  50.7209440  16.8570084   1.6134483  50.0278685  16.9314439   0.9574519
  50.4761192  16.0930428   2.1356000  57.1956565  27.5924679   0.5799000
  56.6230533  28.2114867   0.1269472  57.7689359  28.1424041   1.1138922
  63.2631955  16.8383320  12.7645549  64.2149378  16.9381417  12.7857773
  63.0935406  16.0461588  13.2743633  61.2846335  13.9238903  12.9504950
  60.6896267  14.2043915  12.2551439  60.9996031  14.4132804  13.7221691
  57.4642056  22.9803238  19.3815710  58.3845066  23.1581837  19.5755756
  57.4291639  22.0359284  19.2295409  46.6824221  18.1741832   8.3068984
  46.3627006  17.3207140   8.0143358  46.1357650  18.3890410   9.0626952
  50.4604129  20.8904273  12.0238491  50.6790139  21.8221381  12.0426525
  50.8729903  20.5312247  12.8093295  55.3331994  16.4637479  21.4141240
  55.2328721  17.4131836  21.3453331  55.1153536  16.1355718  20.5417310
  46.5512481  21.7944743  10.2762106  45.8575953  21.3798696   9.7632060
  47.2985472  21.8365280   9.6795525  55.1963264  19.8934618  20.2306302
  54.7130346  20.6934978  20.4370191  55.2824203  19.9042562  19.2773745
  48.4649224  21.7262997   8.1528121  48.4419912  21.8250685   7.2010004
  48.7749860  22.5728148   8.4745287  51.1236602  23.7839152  12.2674735
  52.0779855  23.7523095  12.2004667  50.9249125  23.3229776  13.0824961
  51.7135984  22.3540268  14.8345533  52.5328873  22.8484347  14.8580370
  51.9872792  21.4372236  14.8063100  49.4786831  29.3258772   9.2844933
  49.3441299  28.5659173   8.7182931  49.0618893  30.0499672   8.8173722
  52.6355957  30.2228089   9.4963376  52.5188341  31.1673521   9.3942066
  51.8148403  29.9201650   9.8849175  46.9670898  16.6878402  15.5337730
  47.6129762  16.1777356  16.0224955  46.7588049  17.4247084  16.1081155
  59.4924290  23.7559250  21.0329871  60.3615450  23.9299902  20.6716506
  59.0131042  24.5753666  20.9105600  53.6610471  30.8756351  12.7119304
  54.5637717  30.9079961  13.0285799  53.4347841  29.9456802  12.7265640
  55.4164073  29.6287337   9.3729383  54.4659704  29.6289199   9.2593755
  55.7196559  28.8820072   8.8565417  51.3068389  13.8346019  19.6312744
  52.1699851  13.4782824  19.8416069  50.7333800  13.4959914  20.3188149
  67.9606472  35.4175304  10.3736670  67.6224984  35.3016368   9.4857205
  68.8296241  35.0166469  10.3537676  63.8193288  37.2710780   6.3633561
  63.2558153  37.1800717   5.5949849  63.7045683  36.4510685   6.8436053
  68.4426255  36.5710155  16.3322875  68.4314896  36.1762954  15.4603379
  68.6046895  35.8376228  16.9256647  61.3657720  38.7661972   9.2017781
  62.1579012  38.4252796   8.7864081  61.6054370  38.8756947  10.1219935
  65.1633517  39.3547267  15.2802059  64.8723383  40.2592898  15.1648726
  65.7990501  39.3963795  15.9946129  66.0889723  36.7324116  11.8703419
  66.6853296  36.5080138  11.1560382  66.1464695  35.9908861  12.4728867
  70.1223402  39.0408683  12.2751853  69.8224125  39.9433722  12.1667660
  69.7774461  38.7740866  13.1273006  63.5735883  35.4922480   8.3088558
  62.6486380  35.3598694   8.5166249  63.8220296  36.2716699   8.8058500
  60.9344694  35.1355753   9.1432347  61.0637075  35.3890232  10.0571758
  60.2542145  35.7283461   8.8237002  67.5961411  32.9780869  17.8984188
  66.8194745  33.5374789  17.8887052  68.2351974  33.4637652  18.4199058
  65.8507784  35.7866322  17.4602155  66.5922468  36.3251366  17.1836978
  65.1444769  36.4132611  17.6173707  67.6794193  32.8668069  13.4307873
  68.5255388  33.2907483  13.5742522  67.6192831  32.2101693  14.1246436
  64.0943981  37.7742543  10.0156453  64.6645338  38.2029811   9.3773938
  64.6852093  37.4925127  10.7140639  64.5869147  32.9405970  18.2617465
  63.9567808  33.6222251  18.4952862  64.4805235  32.8289052  17.3170603
  59.8814120  32.6077766   9.1883389  59.0913174  32.8635295   8.7123500
  60.3725367  33.4226104   9.2935429  61.8328865  32.9722345   6.1466866
  61.0360028  33.0841040   6.6650361  61.6054457  33.3108998   5.2807756
  67.6634533  39.4967049  14.0949380  67.7278965  39.9587456  14.9307552
  66.9545457  38.8664413  14.2231690  58.1651823  32.8608257  11.6198380
  58.4159861  33.7455266  11.8855956  58.7011371  32.6812858  10.8473472
  63.8649890  27.2426736  20.6242716  63.4716836  26.6892934  21.2990360
  64.6816030  27.5537314  21.0149233  66.7817851  28.6584615  18.2162972
  67.5227564  29.2591768  18.1367435  67.0135774  27.9162253  17.6581015
  61.9259189  33.8440982  16.4941202  61.8112704  32.9426240  16.7948301
  61.0703707  34.0904679  16.1426019  69.0051027  41.7858723  18.0928703
  68.5614881  40.9995101  17.7749607  69.6668240  41.9737873  17.4272593
  63.7638148  43.3154524  12.6189381  64.3145573  43.1871588  11.8466375
  62.9249624  43.6149413  12.2684274  67.5605319  39.5805652  16.9633612
  68.0933656  38.8193940  16.7332920  67.0319400  39.2879304  17.7057767
  58.7960865  37.0099248   5.3115856  59.6336087  37.4196257   5.0949564
  58.9739132  36.0698691   5.2816050  66.0514440  27.1409103   9.4642669
  66.9167437  26.9451912   9.1048558  66.1191949  26.9119455  10.3912026
  63.6576759  29.3711311   6.8359036  64.2320511  29.1486492   6.1032229
  64.2447742  29.4400005   7.5887637  69.1937167  32.7334493   9.8881753
  68.2759729  32.9549440   9.7303441  69.6097311  32.8080804   9.0293460
  58.8187036  34.3489964   5.9826590  58.6211436  33.7559324   5.2577656
  58.2633700  34.0442174   6.7002528  66.7983759  34.2413070   8.1021183
  66.8532369  33.2886907   8.0263659  65.9874961  34.3972509   8.5862481
  64.7376119  32.8590130   5.8611562  63.9243985  33.1584300   6.2676754
  65.2335113  32.4645819   6.5786044  64.2290194  30.4308485  11.4772797
  64.8689573  30.2897245  10.7795760  63.3967725  30.1442999  11.1011399
  65.0050498  39.7310916   7.5907789  65.7991096  39.2361236   7.3890364
  64.2942190  39.2028779   7.2275495  69.8245342  42.1129011  11.9420157
  69.8782365  42.6819948  12.7097873  68.9560124  42.2830896  11.5774194
  61.3133261  33.8753998   3.6667542  60.3830849  33.8138453   3.8837504
  61.4090733  33.3529950   2.8704183  61.2318810  30.4008810   6.2545783
  61.4925628  31.3154144   6.1454944  62.0535983  29.9333253   6.4042396
  62.7043736  31.8146568  13.4244608  63.3766789  31.6063930  12.7757257
  61.8773522  31.6168654  12.9849840  68.6069308  28.4408509  15.4410269
  67.9597223  29.1398458  15.3474745  69.3770323  28.8744652  15.8086517
  68.7833442  36.2789273  13.5007089  69.7125502  36.4300433  13.3276056
  68.3624472  36.3673294  12.6455735  67.5821774  40.3039938  11.2705626
  67.4432860  39.9358722  12.1431564  66.7936370  40.8187577  11.0989584
  69.1326989  39.6821541   8.6594464  68.7976822  39.6422311   9.5552114
  68.6330935  39.0166256   8.1864874  63.1071233  35.0889171  14.1847045
  62.9691031  34.3569409  14.7858584  64.0176156  34.9998071  13.9031233
  65.7353534  34.8009130  13.6730725  66.4453152  34.1602322  13.6317343
  65.6922842  35.0522025  14.5956906  64.4482468  31.7874348  15.4926364
  63.9119825  31.3365086  16.1447961  63.8599176  31.9220257  14.7496829
  55.3786867  36.0340159   8.1494335  56.0657907  35.7201889   7.5615350
  55.2234995  36.9381524   7.8761586  60.1821589  30.9230356  12.5779359
  60.0979778  30.3156025  11.8429769  59.3604295  31.4139374  12.5788855
  67.2558873  44.3617520  11.7912527  67.1829045  45.1672491  12.3031831
  66.8136266  44.5609485  10.9660548  69.7157557  44.2604354  13.9470685
  70.4285529  44.8951818  13.8746587  69.2247585  44.3568220  13.1310687
  66.9380272  31.5501302   7.6721238  66.5678059  30.9972342   8.3602144
  67.4339364  30.9459436   7.1196238  64.7669470  42.0098797  14.7676256
  65.4678930  42.6435280  14.9205651  64.2964585  42.3513529  14.0071896
  68.6158329  35.3063216  19.0794844  67.9398966  35.2057345  19.7497219
  69.4385963  35.1502429  19.5430841  60.3637188  41.5435152  11.7007359
  60.9490625  40.7978840  11.8335263  60.1662027  41.8539109  12.5844023
  54.9554843  34.1140752  10.4211802  54.9938942  33.5804343  11.2148920
  54.4495136  33.5875958   9.8022779  67.3581112  46.6130143  13.3152460
  67.9099420  46.7761765  14.0801545  67.6987305  47.2034581  12.6432485
  62.3345605  28.9605293  13.9174344  62.3986932  29.8220124  13.5051742
  62.2712725  28.3479294  13.1846703  61.8097878  31.0328425  17.5647379
  62.4369917  30.6505503  18.1784903  60.9525797  30.8142627  17.9303071
  58.5863420  32.8404854   3.4965734  58.8816862  31.9315533   3.4432787
  57.6851456  32.8192594   3.1746736  62.1157667  30.9160851   9.4793282
  61.3944253  31.5296819   9.3400755  62.9050923  31.4518616   9.4009928
  64.9183981  28.2515278  15.7533934  65.4418383  28.4977574  16.5160243
  64.6996314  29.0835312  15.3337071  60.3151262  30.5218952   3.6205059
  59.9863968  29.6416331   3.4380165  60.6690633  30.4666621   4.5081448
  66.1236526  29.1928973  13.4383604  65.7833346  28.3936786  13.8404284
  65.4175532  29.4930683  12.8660438  66.7752998  26.2778285  11.8910927
  67.5979067  25.8038763  11.7689818  67.0191061  27.0568769  12.3909614
  64.2991577  32.9697406   9.7002906  64.1536157  33.2837709  10.5927188
  63.8216780  33.5882306   9.1473805  66.1587960  29.9599954   9.7483796
  66.1449528  29.0641047   9.4116094  66.8760388  29.9670617  10.3822082
  68.0114090  30.3937294  11.7936923  67.7531868  31.3154365  11.7921253
  67.4799131  29.9967728  12.4837387  58.7737239  35.5102750  12.6390567
  58.2290707  36.2862558  12.7710842  59.6516589  35.8573555  12.4809689
  59.5603261  34.6372646  15.5320724  58.8184997  34.7855282  16.1185355
  59.2396005  34.8980912  14.6687474  67.5046923  44.1788625  15.3301114
  67.8134050  43.9337771  16.2023814  68.3022405  44.3835263  14.8419984
  60.0059874  42.5238075   7.5631119  60.8317894  42.2241847   7.1829762
  59.6553926  41.7545698   8.0120907  64.9741407  41.8764543   9.6328792
  64.3521417  41.2135248   9.3331020  65.6446274  41.9025675   8.9502440
  58.2068479  40.4424402   8.5220052  57.3700388  40.0146576   8.3404054
  58.1792125  40.6356845   9.4590844  65.0465935  30.3546331  19.2261298
  65.0954090  31.2308454  18.8439068  65.5888449  29.8123724  18.6532942
  67.2765223  31.1077704  15.9807657  66.4068533  31.4011270  15.7090246
  67.5124704  31.6918149  16.7014921  69.9804257  27.3257321  13.4973077
  70.4986201  28.0618348  13.1719566  69.6259390  27.6321314  14.3319837
  61.5603195  32.1862002   1.6134483  60.8672440  32.2606357   0.9574519
  61.3154947  31.4222346   2.1356000  68.3035811  38.3095156  19.3815710
  69.2238820  38.4873755  19.5755756  68.2685394  37.3651201  19.2295409
  57.5217976  33.5033750   8.3068984  57.2020760  32.6499058   8.0143358
  56.9751404  33.7182328   9.0626952  61.2997884  36.2196191  12.0238491
  61.5183893  37.1513298  12.0426525  61.7123657  35.8604165  12.8093295
  66.1725749  31.7929396  21.4141240  66.0722476  32.7423753  21.3453331
  65.9547291  31.4647635  20.5417310  57.3906236  37.1236661  10.2762106
  56.6969707  36.7090614   9.7632060  58.1379227  37.1657198   9.6795525
  66.0357019  35.2226535  20.2306302  65.5524101  36.0226895  20.4370191
  66.1217958  35.2334480  19.2773745  59.3042978  37.0554915   8.1528121
  59.2813667  37.1542602   7.2010004  59.6143615  37.9020066   8.4745287
  61.9630356  39.1131070  12.2674735  62.9173610  39.0815012  12.2004667
  61.7642880  38.6521694  13.0824961  62.5529738  37.6832186  14.8345533
  63.3722627  38.1776265  14.8580370  62.8266546  36.7664154  14.8063100
  60.3180585  44.6550689   9.2844933  60.1835053  43.8951090   8.7182931
  59.9012647  45.3791589   8.8173722  57.8064653  32.0170320  15.5337730
  58.4523516  31.5069274  16.0224955  57.5981804  32.7539002  16.1081155
  64.5004225  46.2048268  12.7119304  65.4031472  46.2371879  13.0285799
  64.2741595  45.2748719  12.7265640  62.1462144  29.1637937  19.6312744
  63.0093605  28.8074742  19.8416069  61.5727554  28.8251832  20.3188149
  68.6458407  47.3462238  15.5337730  69.2917271  46.8361192  16.0224955
  68.4375558  48.0830919  16.1081155   6.1127637  43.9567715  48.1137718
   5.3591346  43.3875113  47.9581723   6.2475178  43.9230380  49.0608353
   1.0776712  46.2196579  52.7684018   1.2712602  47.1242390  53.0143293
   0.9777330  45.7603999  53.6022604   2.3318775  42.7770246  49.4131922
   2.3208651  43.6594962  49.0425855   1.4636154  42.4241797  49.2186459
   2.9343385  43.9270465  46.0181385   3.3774531  43.1777791  45.6200508
   2.0569895  43.9180602  45.6355117   1.2780567  47.8322824  55.8901263
   0.9865376  48.1952805  56.7264723   0.6652699  47.1189832  55.7114595
   2.4776250  45.3975704  48.4103833   3.3123141  45.8365508  48.5741393
   2.6135378  44.9214357  47.5912079   0.7057502  43.0527318  51.7051926
   0.6733822  42.1143319  51.8911610   1.3158126  43.1311355  50.9717751
   6.5234052  44.1143325  50.8457963   7.2537441  43.8528613  51.4065666
   5.9140998  43.3772047  50.8860031   4.6049349  42.2551188  51.4432414
   3.8782513  42.1207153  50.8348905   4.1896636  42.5628016  52.2489132
   2.2227144  38.4763040  48.7965845   2.8171635  38.2358776  48.0859154
   2.2953728  37.7570171  49.4239382   4.5298217  41.7829241  47.5709267
   3.9697775  41.8522430  48.3440829   3.9241720  41.6070225  46.8508763
   6.1154235  58.4585755  50.2639222   6.7532645  58.3392502  49.5602562
   5.9975078  59.4066599  50.3227174   2.9243942  58.4113183  50.2000747
   2.5862453  58.2954248  49.3121282   3.7933710  58.0104348  50.1801753
   5.6695504  56.1837209  47.3392430   6.4558593  55.7656632  46.9882847
   5.9334208  57.0883301  47.5074079   5.8405581  61.6210059  42.0381087
   5.2051414  61.6944685  42.7501992   5.5102988  62.2103658  41.3600166
  11.0703931  56.1212442  48.2425409  11.8029103  55.5511659  48.4763238
  10.3143287  55.7334042  48.6831914   2.6880051  58.5439683  45.4388751
   2.3238258  58.0170304  46.1501673   3.5447167  58.1538152  45.2655237
   8.5929351  49.8334016  52.7020017   8.2612676  50.7029427  52.4781232
   7.9974965  49.5170300  53.3814048   2.3285538  53.5729583  40.4350100
   2.4959940  54.4409819  40.8020571   2.1382707  53.7356865  39.5111389
   8.4858015  54.5529102  49.7813367   7.5774892  54.4844511  49.4872128
   8.4345611  55.0301047  50.6095193   2.3074759  56.0287241  41.4196767
   2.1874384  56.4744291  42.2582247   1.6127347  56.3772558  40.8610305
  10.3519661  52.7545541  51.5591241   9.7094041  53.0478074  50.9131036
   9.8474590  52.6398461  52.3644438   8.0059825  56.5008714  42.2477101
   8.9177681  56.7336100  42.0724798   7.4969472  57.0845758  41.6852179
   2.6431663  55.8605948  53.2571950   3.4892858  56.2845362  53.4006599
   2.5830300  55.2039573  53.9510513   6.6129407  61.4834532  49.6390682
   5.9838270  61.6480246  48.9366750   6.2255069  61.8976142  50.4101646
  10.4918639  62.4188970  46.9935046   9.8069677  62.7987871  46.4432079
  10.5762488  63.0284297  47.7266994   5.7931108  53.5210317  54.9153124
   5.5492040  54.2752377  54.3787400   6.0691038  53.8995664  55.7500371
   7.7469571  60.0648929  53.5930389   7.9586466  60.7080689  52.9164770
   7.6999319  59.2311246  53.1252319   5.3495800  52.6766750  50.4966962
   4.4880279  52.9748003  50.7883699   5.3758234  52.8937149  49.5647994
   1.1026255  57.3432093  43.7130332   1.8050298  57.7953136  44.1804259
   0.7706884  56.7015911  44.3410225   8.8615399  62.9420884  51.7652747
   9.6832842  62.5401072  51.4835428   8.8577801  62.8389119  52.7168863
  16.9521392  59.2859633  48.1137718  16.1985100  58.7167031  47.9581723
  17.0868933  59.2522297  49.0608353   5.6912483  47.6803597  52.3191331
   5.3476753  48.5705239  52.2430442   6.0591446  47.4905255  51.4560916
   5.6562766  57.6712208  40.8263766   5.1409389  58.4416813  41.0652154
   5.3840074  56.9977344  41.4496828   3.2409877  52.5161909  45.8849005
   2.3851473  52.1268759  45.7054643   3.6536829  52.5953870  45.0248790
   4.7709024  50.0508252  50.2840564   4.2673819  50.0138387  49.4708370
   5.0639630  50.9600995  50.3437221   1.0151909  50.1346982  49.2906746
   1.8804906  49.9389791  48.9312635   1.0829418  49.9057334  50.2176103
  10.6297040  60.4244563  42.7616940   9.8526483  60.0855722  42.3172102
  11.3088521  60.4297186  42.0871905   5.4449069  55.5439300  42.6523547
   5.1399205  55.8585450  43.5033691   6.3979511  55.6220720  42.6950880
   8.8688347  59.8978544  49.4183548   8.2112021  60.5877806  49.5063676
   9.6728746  60.2874976  49.7617534   7.6793806  58.2522917  47.4687489
   8.1925688  58.8852909  47.9709199   8.3295030  57.6524112  47.1030849
   2.0348101  59.5209734  37.3051474   1.1275163  59.2898987  37.5042623
   2.5319133  58.7247353  37.4925456   4.1574637  55.7272372  49.7145830
   3.2397198  55.9487319  49.5567518   4.5734780  55.8018683  48.8557537
   4.9409684  57.1263788  44.8448510   5.6881503  57.6385185  44.5355632
   5.2101274  56.8047841  45.7052904   3.2136335  59.6222329  41.8275464
   2.3047554  59.3381362  41.9247934   3.2431418  60.0421407  40.9678771
   7.3888522  54.1620904  46.8267299   6.6511278  53.6498291  47.1577542
   7.6415295  53.7221286  46.0150576   7.4900149  46.9397156  47.4209069
   7.7959026  46.0794520  47.1334984   8.2152754  47.5314777  47.2208063
   1.7621229  57.2350949  47.9285260   1.8169838  56.2824786  47.8527736
   0.9512431  57.3910388  48.4126558   2.9112422  61.1631072  39.1663543
   2.4731852  60.4466931  38.7069180   3.6522863  61.3907187  38.6048634
   5.2987800  56.3169834  54.5190533   5.6537188  56.5441307  55.3784998
   5.9459931  56.6488210  53.8967788  11.0285537  59.4388269  45.2239862
  10.8903436  59.6289865  44.2961051  10.6721756  60.2007652  45.6807913
  11.0554917  61.5064796  50.2351133  11.4891423  61.4140086  51.0834187
  11.7686497  61.4822297  49.5971149  11.9170466  61.5488497  52.7684018
  12.1106356  62.4534308  53.0143293  11.8171084  61.0895916  53.6022604
   3.5706777  51.4346388  55.2674346   2.9234692  52.1336337  55.1738822
   4.3407792  51.8682532  55.6350594   3.7470911  59.2727153  53.3271166
   4.6762971  59.4238312  53.1540133   3.3261941  59.3611173  52.4719812
   7.0323650  60.0215454  38.7595601   6.4152821  59.2962282  38.6628653
   6.5640138  60.7824814  38.4162675   8.6895189  62.6953946  54.6515361
   7.8021968  62.3579868  54.7741760   9.2593740  61.9636978  54.8884126
   5.3182772  52.4021798  47.7713631   5.8151472  51.6491761  47.4514701
   4.5469754  52.4386115  47.2056840  13.1712529  58.1062164  49.4131922
  13.1602406  58.9886879  49.0425855  12.3029909  57.7533715  49.2186459
   6.4012553  61.1593485  45.3452054   5.4668831  61.2794948  45.1756758
   6.5789221  60.2565952  45.0812064   1.9017741  54.5439181  47.4985315
   1.5315528  53.9910222  48.1866221   2.3976833  53.9397315  46.9460315
   9.7885104  57.0010805  45.8802088  10.2545556  57.8338796  45.8062391
  10.2392605  56.5355786  46.5847347   7.7601767  49.3691392  49.9192990
   6.8464847  49.5995619  50.0875197   8.1894868  49.4529836  50.7707022
   7.5308225  57.5581284  52.4192884   6.8779676  57.8057191  51.7645336
   7.9088605  56.7445422  52.0855361   1.7390467  49.2716164  51.7175004
   2.5616536  48.7976642  51.5953895   1.9828531  50.0506648  52.2173691
   4.5229825  53.0049572  42.9496238   4.7393439  53.8874210  42.6485067
   4.0423892  52.6135785  42.2201880   1.1225429  52.9537833  49.5747873
   1.1086998  52.0578926  49.2380171   1.8397857  52.9608497  50.2086159
   2.9751560  53.3875173  51.6201000   2.7169337  54.3092244  51.6185330
   2.4436600  52.9905608  52.3101464   3.3953515  49.5207124  47.9802163
   3.4175212  49.5846457  47.0254142   3.8121574  48.6811632  48.1742669
  13.7737139  59.2562383  46.0181385  14.2168285  58.5069708  45.6200508
  12.8963650  59.2472520  45.6355117  10.8064344  63.2592430  43.0275314
  11.3315668  63.5979703  42.3024634  10.7186696  62.3239445  42.8438449
  10.6156125  60.7417800  55.6459241  10.6654130  60.5767808  56.5874764
  10.5070048  59.8745059  55.2557122   7.9059887  56.7248728  56.9618548
   8.8069750  56.5855193  56.6702545   7.9807862  56.8903183  57.9016725
  12.1174322  63.1614742  55.8901263  11.8259130  63.5244722  56.7264723
  11.5046453  62.4481750  55.7114595  13.3170004  60.7267621  48.4103833
  14.1516896  61.1657426  48.5741393  13.4529133  60.2506275  47.5912079
  10.3661510  58.2847356  54.3581320  10.8415632  58.4775003  53.5500172
   9.4427075  58.3406542  54.1124704   4.9441727  50.3195200  53.3237154
   5.4623670  51.0556227  52.9983643   4.5896859  50.6259193  54.1583914
   5.1954321  46.7395482  48.8438051   5.4756074  46.0718671  49.4698478
   5.9804928  46.9324578  48.3312715   9.0663179  55.1613116  52.5909626
  10.0180602  55.2611214  52.6121850   8.8966629  54.3691385  53.1007710
   7.0877559  52.2468700  52.7769027   6.4927491  52.5273712  52.0815516
   6.8027255  52.7362601  53.5485768  11.5451257  58.3819236  51.7051926
  11.5127577  57.4435237  51.8911610  12.1551880  58.4603273  50.9717751
   3.3834588  57.2515289  37.7479130   4.3293692  57.1221497  37.8167548
   3.0048833  56.5129951  38.2248558  11.6945745  55.1730279  51.7510209
  11.1784794  54.3888736  51.5640138  12.5785694  54.8448996  51.9156728
   9.3556472  48.9171295  47.7106022   9.1581293  48.6086383  48.5949354
   9.9656178  49.6432934  47.8403951  17.3627807  59.4435243  50.8457963
  18.0931195  59.1820531  51.4065666  16.7534752  58.7063965  50.8860031
  15.4443104  57.5843105  51.4432414  14.7176267  57.4499070  50.8348905
  15.0290391  57.8919934  52.2489132   1.5677505  55.1765265  37.6834015
   0.6608960  54.8798378  37.7596729   1.8453486  54.8795084  36.8168301
   3.1839571  49.7202155  43.8378256   2.3740299  49.3749240  44.2133502
   3.8723988  49.4109699  44.4265868   5.1130119  48.7980202  45.4602553
   5.6661157  49.2175655  46.1192576   5.3500205  47.8715950  45.5025509
   8.4908926  50.9080727  44.9681217   7.9107595  51.5665531  44.5859270
   8.2244859  50.0858072  44.5568635   6.9412492  50.3085785  47.1702538
   7.4412271  50.4202319  46.3616856   7.5848100  50.0046838  47.8103346
   7.2733804  53.0680817  44.0237565   6.3859659  53.3530468  43.8057760
   7.6887793  52.9074581  43.1764842  10.6248340  53.0927338  47.7391905
  11.4008730  53.5823791  48.0116522   9.8996474  53.5185393  48.1963774
  13.0620899  53.8054958  48.7965845  13.6565390  53.5650694  48.0859154
  13.1347482  53.0862088  49.4239382   7.2474828  58.5835353  44.2387856
   7.1910029  59.0403905  43.3995488   7.8003170  57.8226038  44.0610698
  11.0579634  54.3725085  45.0637975  10.8016568  53.9721721  45.8946183
  10.4332502  55.0868879  44.9388114  15.3691971  57.1121159  47.5709267
  14.8091529  57.1814348  48.3440829  14.7635475  56.9362143  46.8508763
   7.9809607  59.7740135  41.5340385   7.9258411  59.6084406  40.5928829
   7.3555662  60.4816168  41.6902575   1.2905732  49.2748244  41.1125703
   1.2784402  50.2190084  41.2693974   2.1829154  49.0918389  40.8185164
   5.1057852  45.8691020  45.3671640   4.3390248  45.3149507  45.5128322
   5.5168557  45.9412889  46.2285792  19.4323106  65.1625934  52.7020017
  19.1006431  66.0321345  52.4781232  18.8368719  64.8462218  53.3814048
  16.5306238  63.0095515  52.3191331  16.1870507  63.8997156  52.2430442
  16.8985200  62.8197172  51.4560916  18.3293903  62.2689074  47.4209069
  18.6352780  61.4086437  47.1334984  19.0546508  62.8606694  47.2208063
  18.5995521  64.6983309  49.9192990  17.6858601  64.9287536  50.0875197
  19.0288623  64.7821753  50.7707022  14.2347270  64.8499041  47.9802163
  14.2568966  64.9138374  47.0254142  14.6515329  64.0103550  48.1742669
  16.0348075  62.0687400  48.8438051  16.3149829  61.4010589  49.4698478
  16.8198682  62.2616496  48.3312715  20.1950227  64.2463213  47.7106022
  19.9975048  63.9378301  48.5949354  20.8049932  64.9724852  47.8403951
  14.0233325  65.0494073  43.8378256  13.2134053  64.7041158  44.2133502
  14.7117742  64.7401617  44.4265868  15.9523873  64.1272120  45.4602553
  16.5054912  64.5467573  46.1192576  16.1893960  63.2007868  45.5025509
  19.3302680  66.2372645  44.9681217  18.7501349  66.8957449  44.5859270
  19.0638613  65.4149989  44.5568635  17.7806247  65.6377702  47.1702538
  18.2806025  65.7494237  46.3616856  18.4241855  65.3338755  47.8103346
  15.9451606  61.1982938  45.3671640  15.1784002  60.6441425  45.5128322
  16.3562311  61.2704807  46.2285792   6.1127638  20.9629838  34.8383025
   5.3591347  20.3937236  34.6827029   6.2475180  20.9292502  35.7853660
   1.0776713  23.2258702  39.4929325   1.2712603  24.1304513  39.7388600
   0.9777331  22.7666121  40.3267910   2.3318776  19.7832369  36.1377229
   2.3208652  20.6657084  35.7671162   1.4636156  19.4303920  35.9431766
   2.9343386  20.9332588  32.7426692   3.3774532  20.1839913  32.3445815
   2.0569896  20.9242724  32.3600424   1.2780569  24.8384947  42.6146569
   0.9865377  25.2014927  43.4510030   0.6652700  24.1251955  42.4359901
   2.4776251  22.4037826  35.1349139   3.3123142  22.8427630  35.2986700
   2.6135380  21.9276480  34.3157385   0.7057504  20.0589441  38.4297232
   0.6733824  19.1205442  38.6156916   1.3158127  20.1373478  37.6963057
   6.5234053  21.1205448  37.5703269   7.2537442  20.8590736  38.1310973
   5.9140999  20.3834170  37.6105337   4.6049351  19.2613310  38.1677720
   3.8782514  19.1269275  37.5594212   4.1896637  19.5690139  38.9734438
   2.2227145  15.4825163  35.5211152   2.8171636  15.2420899  34.8104460
   2.2953729  14.7632293  36.1484688   4.5298218  18.7891363  34.2954573
   3.9697776  18.8584553  35.0686135   3.9241722  18.6132348  33.5754069
   6.1154237  35.4647877  36.9884529   6.7532647  35.3454625  36.2847869
   5.9975080  36.4128721  37.0472481   2.9243943  35.4175305  36.9246054
   2.5862455  35.3016370  36.0366588   3.7933711  35.0166471  36.9047060
   3.4063726  36.5710157  42.8832259   3.3952367  36.1762955  42.0112763
   3.5684365  35.8376230  43.4766031   4.3630317  40.9381750  28.2257409
   3.7118297  41.5235830  27.8391423   5.1574680  41.4687945  28.2852447
   1.0527194  36.7324118  38.4212803   1.6490766  36.5080140  37.7069766
   1.1102166  35.9908863  39.0238251   5.6695505  33.1899331  34.0637737
   6.4558594  32.7718754  33.7128154   5.9334210  34.0945423  34.2319385
   5.8405583  38.6272182  28.7626394   5.2051416  38.7006808  29.4747298
   5.5102989  39.2165780  28.0845473  11.0703932  33.1274564  34.9670715
  11.8029104  32.5573781  35.2008545  10.3143288  32.7396165  35.4077221
   2.6880052  35.5501806  32.1634058   2.3238259  35.0232427  32.8746979
   3.5447168  35.1600275  31.9900543   8.5929353  26.8396139  39.4265324
   8.2612677  27.7091550  39.2026539   7.9974966  26.5232423  40.1059354
   2.3285539  30.5791706  27.1595406   2.4959941  31.4471942  27.5265877
   2.1382708  30.7418987  26.2356696   5.0860872  39.0408685  38.8261237
   4.7861595  39.9433723  38.7177044   4.7411932  38.7740868  39.6782390
   8.4858016  31.5591225  36.5058674   7.5774893  31.4906633  36.2117435
   8.4345612  32.0363170  37.3340500   2.3074760  33.0349363  28.1442073
   2.1874385  33.4806414  28.9827554   1.6127348  33.3834681  27.5855611
   2.5598882  32.9780870  44.4493571   1.7832216  33.5374790  44.4396436
   3.1989445  33.4637653  44.9708442  10.3519662  29.7607663  38.2836548
   9.7094043  30.0540196  37.6376343   9.8474591  29.6460583  39.0889745
   8.0059826  33.5070836  28.9722407   8.9177682  33.7398223  28.7970105
   7.4969473  34.0907881  28.4097486   6.2900594  37.9295464  42.6083700
   6.6983950  37.4877875  41.8638332   5.5677855  37.3548092  42.8617893
   2.6431664  32.8668071  39.9817257   3.4892859  33.2907484  40.1251906
   2.5830301  32.2101695  40.6755820   6.6129408  38.4896655  36.3635989
   5.9838271  38.6542369  35.6612057   6.2255070  38.9038264  37.1346953
  10.4918640  39.4251093  33.7180353   9.8069678  39.8049994  33.1677386
  10.5762490  40.0346419  34.4512300   5.7931109  30.5272439  41.6398430
   5.5492041  31.2814500  41.1032706   6.0691040  30.9057787  42.4745678
   7.7469572  37.0711052  40.3175696   7.9586467  37.7142812  39.6410077
   7.6999320  36.2373368  39.8497626   5.3495801  29.6828872  37.2212268
   4.4880280  29.9810126  37.5129006   5.3758235  29.8999271  36.2893301
   2.1657370  38.2271063  33.6286074   2.6295716  38.5058766  32.8390696
   1.9014168  37.3254507  33.4459165   1.1026256  34.3494215  30.4375639
   1.8050300  34.8015259  30.9049565   0.7706885  33.7078034  31.0655532
   8.8615400  39.9483007  38.4898053   9.6832844  39.5463194  38.2080735
   8.8577803  39.8451241  39.4414169   2.6272003  39.4967050  40.6458764
   2.6916436  39.9587458  41.4816936   1.9182927  38.8664415  40.7741074
   2.3420021  41.1635158  30.5137744   2.2065696  42.0086694  30.9422592
   2.8829833  41.3654435  29.7503678   1.7455322  28.6584617  44.7672356
   2.4865035  29.2591770  44.6876818   1.9773244  27.9162255  44.2090399
   3.9688497  41.7858724  44.6438086   3.5252351  40.9995103  44.3258991
   4.6305711  41.9737875  43.9781977   6.0669735  42.0661524  42.6719488
   6.0488211  42.8870405  42.1799757   6.9889655  41.9415600  42.8969629
   2.5242790  39.5805654  43.5142996   3.0571126  38.8193942  43.2842304
   1.9956871  39.2879306  44.2567150   5.6912484  24.6865720  39.0436638
   5.3476754  25.5767361  38.9675748   6.0591447  24.4967377  38.1806223
   5.6562767  34.6774331  27.5509073   5.1409391  35.4478935  27.7897460
   5.3840076  34.0039467  28.1742134   3.2409878  29.5224032  32.6094311
   2.3851475  29.1330882  32.4299950   3.6536830  29.6015992  31.7494097
   4.7709025  27.0570375  37.0085871   4.2673820  27.0200510  36.1953676
   5.0639632  27.9663118  37.0682528   1.0151911  27.1409105  36.0152053
   1.8804908  26.9451913  35.6557942   1.0829420  26.9119456  36.9421409
  10.6297041  37.4306685  29.4862246   9.8526484  37.0917845  29.0417408
  11.3088522  37.4359309  28.8117211   5.4449070  32.5501423  29.3768854
   5.1399206  32.8647572  30.2278997   6.3979513  32.6282843  29.4196187
   3.8895502  38.7091646  31.0261808   3.3616864  37.9744406  30.7135045
   3.3883005  39.4866323  30.7801776   8.8688348  36.9040667  36.1428854
   8.2112023  37.5939928  36.2308983   9.6728747  37.2937099  36.4862841
   7.6793807  35.2585039  34.1932796   8.1925689  35.8915031  34.6954506
   8.3295031  34.6586235  33.8276156   2.0348102  36.5271857  24.0296781
   1.1275164  36.2961110  24.2287930   2.5319134  35.7309476  24.2170763
   4.9416181  45.2369364  26.9493467   4.2677880  45.5401060  27.5578425
   5.3282003  46.0398444  26.5998924   4.1574638  32.7334495  36.4391137
   3.2397199  32.9549442  36.2812825   4.5734782  32.8080805  35.5802844
   4.9409686  34.1325911  31.5693817   5.6881505  34.6447308  31.2600939
   5.2101275  33.8109963  32.4298210   3.2136336  36.6284451  28.5520771
   2.3047555  36.3443484  28.6493241   3.2431420  37.0483530  27.6924078
   8.4455603  40.2391041  32.3211939   7.9917930  39.3981951  32.3777129
   7.8149570  40.8752439  32.6586719   7.3888523  31.1683027  33.5512606
   6.6511280  30.6560413  33.8822849   7.6415296  30.7283409  32.7395883
   6.8888543  42.0767538  33.2561757   7.1811517  42.6372595  32.5374122
   7.3987163  42.3696099  34.0114916   7.4900150  23.9459279  34.1454375
   7.7959027  23.0856642  33.8580290   8.2152755  24.5376899  33.9453369
   1.7621230  34.2413072  34.6530566   1.8169840  33.2886908  34.5773043
   0.9512432  34.3972511  35.1371865   2.9112424  38.1693195  25.8908850
   2.4731854  37.4529054  25.4314487   3.6522865  38.3969310  25.3293941
   1.8522168  42.8547889  34.3455210   1.8098346  43.0808735  33.4163742
   2.7684867  42.6211263  34.4941011   5.2987801  33.3231956  41.2435839
   5.6537189  33.5503429  42.1030305   5.9459933  33.6550333  40.6213094
  11.0285538  36.4450392  31.9485168  10.8903437  36.6351988  31.0206357
  10.6721757  37.2069775  32.4053219  11.0554918  38.5126919  36.9596440
  11.4891425  38.4202208  37.8079494  11.7686499  38.4884420  36.3216456
   4.7882813  42.1129013  38.4929540   4.8419835  42.6819950  39.2607256
   3.9197594  42.2830898  38.1283577  11.9170468  38.5550620  39.4929325
  12.1106358  39.4596430  39.7388600  11.8171086  38.0958039  40.3267910
   3.5706778  28.4408510  41.9919652   2.9234693  29.1398460  41.8984129
   4.3407794  28.8744654  42.3595901   6.9785576  38.7057362  45.0670206
   6.8271083  38.4767914  44.1500289   6.9690256  39.6627964  45.0801551
   3.7470913  36.2789275  40.0516472   4.6762973  36.4300435  39.8785439
   3.3261943  36.3673296  39.1965119   2.5459244  40.3039940  37.8215010
   2.4070330  39.9358724  38.6940948   1.7573841  40.8187579  37.6498968
   3.1407396  45.4049036  29.1640546   3.3159152  44.9337079  29.9786169
   2.4540184  46.0314802  29.3921807   4.0964460  39.6821542  35.2103848
   3.7614292  39.6422312  36.1061497   3.5968405  39.0166258  34.7374258
   7.0323651  37.0277577  25.4840907   6.4152822  36.3024405  25.3873960
   6.5640140  37.7886937  25.1407982   0.6991004  34.8009132  40.2240108
   1.4090623  34.1602324  40.1826727   0.6560312  35.0522027  41.1466289
   8.6877783  41.7376485  43.1446688   8.6290329  41.0535705  42.4777271
   9.0897301  42.4795475  42.6927314   8.6895190  39.7016069  41.3760667
   7.8021969  39.3641991  41.4987066   9.2593741  38.9699100  41.6129433
   2.2196344  44.3617521  38.3421910   2.1466515  45.1672493  38.8541215
   1.7773737  44.5609487  37.5169932   2.0086123  43.5989291  31.8524732
   1.2253645  44.1410972  31.9462957   2.7078868  44.1163271  32.2518973
   5.3182773  29.4083921  34.4958937   5.8151473  28.6553883  34.1760008
   4.5469755  29.4448237  33.9302147  13.1712531  35.1124286  36.1377229
  13.1602407  35.9949002  35.7671162  12.3029910  34.7595837  35.9431766
   4.6795027  44.2604355  40.4980069   5.3922999  44.8951820  40.4255971
   4.1885056  44.3568221  39.6820071   6.4012554  38.1655608  32.0697361
   5.4668833  38.2857071  31.9002065   6.5789222  37.2628075  31.8057371
   1.9017742  31.5501304  34.2230622   1.5315530  30.9972344  34.9111528
   2.3976835  30.9459437  33.6705622   9.7885105  34.0072927  32.6047395
  10.2545558  34.8400919  32.5307698  10.2392606  33.5417909  33.3092653
   7.8561336  40.3516749  29.6033547   8.1321180  40.2373343  30.5127421
   6.9865835  39.9534233  29.5645720   7.7601768  26.3753514  36.6438296
   6.8464848  26.6057741  36.8120503   8.1894870  26.4591958  37.4952329
   7.5308227  34.5643406  39.1438190   6.8779677  34.8119314  38.4890643
   7.9088607  33.7507544  38.8100668   4.4915400  44.6003099  33.2466361
   4.6737795  43.7824755  33.7094113   5.3148386  44.8170792  32.8091251
   4.8257566  43.5271285  30.5081409   5.3545332  43.0163739  29.8951571
   5.0885786  43.2113815  31.3726942   3.5795800  35.3063217  45.6304227
   2.9036437  35.2057347  46.3006603   4.4023434  35.1502431  46.0940225
   2.3218583  46.6130145  39.8661843   2.8736891  46.7761766  40.6310929
   2.6624776  47.2034583  39.1941868   7.1729457  41.4391402  45.7210498
   7.7169361  42.0521361  45.2265453   6.5916302  41.9970981  46.2377511
   5.4586970  44.5612120  36.8525526   5.3338109  43.7601860  36.3436471
   6.1166061  45.0558314  36.3639496   7.5221878  42.3621140  38.4805076
   6.5752214  42.2426492  38.4083402   7.8704651  41.4743638  38.5631337
   4.5268311  42.1573857  34.6809428   4.3793274  41.2290564  34.8616998
   5.3521805  42.1793947  34.1966503   8.1302433  42.9802415  35.7674301
   9.0548981  42.7745277  35.6298752   7.9617737  42.7318817  36.6763642
   1.7390468  26.2778287  38.4420311   2.5616538  25.8038765  38.3199201
   1.9828532  27.0568771  38.9418997   4.5229826  30.0111694  29.6741545
   4.7393440  30.8936332  29.3730373   4.0423893  29.6197908  28.9447187
   1.1225430  29.9599955  36.2993179   1.1086999  29.0641049  35.9625477
   1.8397858  29.9670619  36.9331465   2.9751561  30.3937296  38.3446307
   2.7169339  31.3154366  38.3430637   2.4436601  29.9967730  39.0346771
   7.9197750  43.4988083  31.1236392   8.0934627  42.9334505  30.3710245
   8.4126641  44.2988978  30.9415882   3.3953516  26.5269246  34.7047469
   3.4175213  26.5908579  33.7499449   3.8121575  25.6873755  34.8987975
  13.7737141  36.2624506  32.7426692  14.2168287  35.5131831  32.3445815
  12.8963651  36.2534642  32.3600424   8.9072922  42.8154847  28.2233290
   9.6023827  43.4361540  28.4420605   9.2496072  41.9650198  28.4985668
  10.8064345  40.2654553  29.7520621  11.3315669  40.6041825  29.0269941
  10.7186698  39.3301568  29.5683756   2.4684394  44.1788626  41.8810498
   2.7771520  43.9337773  42.7533197   3.2659876  44.3835265  41.3929368
   2.4905006  46.3326536  34.1115874   2.0509996  45.8402915  34.8048731
   3.2413123  45.7899504  33.8707950  10.4958251  40.8987456  45.0571819
   9.7053795  40.8811595  44.5176318  10.2591606  41.4375750  45.8120856
  10.6156126  37.7479923  42.3704548  10.6654131  37.5829930  43.3120070
  10.5070050  36.8807182  41.9802428   7.9059889  33.7310851  43.6863854
   8.8069751  33.5917316  43.3947852   7.9807863  33.8965306  44.6262032
   2.2402694  31.1077706  42.5317041   1.3706003  31.4011272  42.2599629
   2.4762174  31.6918151  43.2524304  12.1174323  40.1676864  42.6146569
  11.8259131  40.5306845  43.4510030  11.5046454  39.4543873  42.4359901
  13.3170005  37.7329744  35.1349139  14.1516897  38.1719548  35.2986700
  13.4529134  37.2568397  34.3157385  10.3661511  35.2909479  41.0826627
  10.8415633  35.4837125  40.2745479   9.4427077  35.3468665  40.8370011
   4.9441728  27.3257322  40.0482461   5.4623672  28.0618349  39.7228950
   4.5896861  27.6321316  40.8829220   5.1954322  23.7457605  35.5683358
   5.4756076  23.0780794  36.1943784   5.9804929  23.9386701  35.0558021
   2.9987790  42.9216599  27.1308384   2.4261758  43.5406786  26.6778856
   3.5720584  43.4715961  27.6648306   9.0663180  32.1675239  39.3154933
  10.0180603  32.2673337  39.3367157   8.8966631  31.3753508  39.8253017
   7.0877560  29.2530822  39.5014334   6.4927492  29.5335835  38.8060822
   6.8027256  29.7424723  40.2731075   6.2185050  43.2053749  28.2616966
   7.1515723  43.1399311  28.4649842   6.1308263  44.0410016  27.8031499
   8.8473067  42.5219619  25.2220914   8.7686698  42.1879483  26.1156672
   9.6682734  43.0141387  25.2212386  11.5451258  35.3881359  38.4297232
  11.5127578  34.4497359  38.6156916  12.1551882  35.4665395  37.6963057
   3.3834589  34.2577412  24.4724436   4.3293694  34.1283620  24.5412854
   3.0048834  33.5192074  24.9493865  11.6945747  32.1792402  38.4755516
  11.1784795  31.3950859  38.2885444  12.5785695  31.8511119  38.6402035
   9.3556474  25.9233418  34.4351328   9.1581295  25.6148506  35.3194660
   9.9656179  26.6495057  34.5649258  15.4443105  34.5905228  38.1677720
  14.7176269  34.4561193  37.5594212  15.0290392  34.8982057  38.9734438
   3.2673281  38.3095158  45.9325093   4.1876291  38.4873757  46.1265140
   3.2322865  37.3651203  45.7804793   1.5677506  32.1827388  24.4079322
   0.6608962  31.8860501  24.4842035   1.8453487  31.8857206  23.5413608
   3.1839572  26.7264278  30.5623563   2.3740300  26.3811363  30.9378809
   3.8723989  26.4171821  31.1511175   5.1130120  25.8042325  32.1847860
   5.6661159  26.2237778  32.8437883   5.3500206  24.8778073  32.2270816
   1.1363219  31.7929398  47.9650624   1.0359946  32.7423755  47.8962715
   0.9184761  31.4647637  47.0926694   8.4908927  27.9142850  31.6926524
   7.9107596  28.5727654  31.3104576   8.2244860  27.0920194  31.2813941
   6.9412494  27.3147907  33.8947844   7.4412272  27.4264442  33.0862163
   7.5848102  27.0108960  34.5348653   0.9994489  35.2226537  46.7815685
   0.5161571  36.0226897  46.9879574   1.0855428  35.2334482  45.8283129
   7.2733805  30.0742940  30.7482872   6.3859660  30.3592591  30.5303067
   7.6887794  29.9136703  29.9010149  10.6248341  30.0989461  34.4637211
  11.4008731  30.5885914  34.7361828   9.8996476  30.5247515  34.9209081
  13.0620900  30.8117080  35.5211152  13.6565391  30.5712816  34.8104460
  13.1347484  30.0924211  36.1484688   6.4177019  39.8387615  24.8430892
   7.1212869  40.0437617  25.4588548   5.6939667  40.4064377  25.1079976
   7.2474829  35.5897476  30.9633162   7.1910030  36.0466027  30.1240795
   7.8003171  34.8288161  30.7856005  11.0579635  31.3787208  31.7883282
  10.8016569  30.9783844  32.6191489  10.4332503  32.0931002  31.6633421
   8.3263716  40.2770144  26.8929352   9.1609320  39.8451342  26.7106827
   8.1648059  40.1052158  27.8206247   7.9809608  36.7802257  28.2585691
   7.9258412  36.6146529  27.3174136   7.3555664  37.4878290  28.4147881
   5.2955515  39.0851169  47.5839254   6.1646675  39.2591821  47.2225889
   4.8162267  39.9045586  47.4614984   1.2905734  26.2810366  27.8371010
   1.2784404  27.2252206  27.9939281   2.1829156  26.0980512  27.5430471
   5.1057853  22.8753143  32.0916947   4.3390249  22.3211630  32.2373629
   5.5168558  22.9475012  32.9531098  13.7637697  50.7467223  36.9246054
  13.4256209  50.6308288  36.0366588  14.6327466  50.3458388  36.9047060
   9.6224513  52.6002700  32.9142945   9.0589378  52.5092637  32.1459232
   9.5076908  51.7802604  33.3945437  14.2457480  51.9002075  42.8832259
  14.2346121  51.5054873  42.0112763  14.4078120  51.1668148  43.4766031
   7.1688945  54.0953891  35.7527165   7.9610237  53.7544716  35.3373464
   7.4085595  54.2048866  36.6729318  15.2024072  56.2673667  28.2257409
  14.5512052  56.8527748  27.8391423  15.9968435  56.7979862  28.2852447
   9.1279699  53.3562804  28.6244544   9.9010575  52.8091792  28.4857420
   9.4805098  54.2207054  28.8359005  10.9664742  54.6839187  41.8311443
  10.6754608  55.5884818  41.7158109  11.6021726  54.7255714  42.5455513
  11.8920948  52.0616035  38.4212803  12.4884521  51.8372058  37.7069766
  11.9495920  51.3200781  39.0238251  11.4645977  49.5155471  26.2562994
  11.7171498  48.9936992  25.4946457  10.5270536  49.3521616  26.3589677
  16.6799337  53.9564099  28.7626394  16.0445170  54.0298726  29.4747298
  16.3496743  54.5457698  28.0845473  11.1842266  51.4183577  28.4587369
  11.0678524  50.7428480  29.1268453  11.2944525  50.9315950  27.6419522
  13.5273807  50.8793724  32.1634058  13.1632014  50.3524345  32.8746979
  14.3840922  50.4892193  31.9900543  13.1679294  45.9083623  27.1595406
  13.3353696  46.7763860  27.5265877  12.9776463  46.0710905  26.2356696
  15.9254627  54.3700602  38.8261237  15.6255350  55.2725641  38.7177044
  15.5805686  54.1032785  39.6782390   9.3767108  50.8214399  34.8597941
   8.4517605  50.6890613  35.0675633   9.6251521  51.6008618  35.3567884
  13.1468514  48.3641281  28.1442073  13.0268140  48.8098332  28.9827554
  12.4521103  48.7126598  27.5855611   6.7375919  50.4647673  35.6941730
   6.8668300  50.7182152  36.6081142   6.0573371  51.0575381  35.3746385
  10.9075406  61.1344923  31.7932204  10.8299436  62.0852748  31.8720685
  10.3037050  60.7890795  32.4507131  13.3992636  48.3072788  44.4493571
  12.6225970  48.8666708  44.4396436  14.0383199  48.7929571  44.9708442
  18.8453581  48.8362754  28.9722407  19.7571437  49.0690141  28.7970105
  18.3363228  49.4199798  28.4097486  11.6539009  51.1158241  44.0111538
  12.3953693  51.6543285  43.7346362  10.9475994  51.7424530  44.1683090
  17.1294348  53.2587382  42.6083700  17.5377704  52.8169792  41.8638332
  16.4071610  52.6840009  42.8617893  13.4825418  48.1959989  39.9817257
  14.3286613  48.6199402  40.1251906  13.4224056  47.5393613  40.6755820
  17.4523163  53.8188572  36.3635989  16.8232025  53.9834287  35.6612057
  17.0648825  54.2330182  37.1346953  21.3312395  54.7543010  33.7180353
  20.6463433  55.1341912  33.1677386  21.4156244  55.3638337  34.4512300
  13.0051125  53.5562981  33.6286074  13.4689470  53.8350684  32.8390696
  12.7407923  52.6546425  33.4459165   9.8975206  53.1034462  36.5665837
  10.4676563  53.5321730  35.9283322  10.4883318  52.8217047  37.2650023
  11.9420011  49.6786133  30.4375639  12.6444054  50.1307177  30.9049565
  11.6100639  49.0369952  31.0655532  10.3900372  48.2697890  44.8126848
   9.7599033  48.9514170  45.0462245  10.2836460  48.1580971  43.8679987
   5.6845345  47.9369686  35.7392773   4.8944399  48.1927214  35.2632883
   6.1756592  48.7518023  35.8444813  19.7009154  55.2774925  38.4898053
  20.5226598  54.8755112  38.2080735  19.6971557  55.1743159  39.4414169
   7.6360090  48.3014265  32.6976249   6.8391253  48.4132959  33.2159745
   7.4085682  48.6400917  31.8317140  13.4665758  54.8258968  40.6458764
  13.5310190  55.2879375  41.4816936  12.7576682  54.1956333  40.7741074
   3.9683048  48.1900176  38.1707763   4.2191086  49.0747186  38.4365339
   4.5042596  48.0104778  37.3982855  13.1813775  56.4927076  30.5137744
  13.0459450  57.3378611  30.9422592  13.7223588  56.6946353  29.7503678
   9.6681115  42.5718655  47.1752099   9.2748061  42.0184854  47.8499744
  10.4847255  42.8829234  47.5658617   6.6343173  54.0102514  31.0865669
   7.1467693  54.8045764  31.2371234   7.2865886  53.3128804  31.0199271
   8.4438058  57.1268270  33.1688422   8.6204686  58.0486235  32.9809406
   9.2394891  56.8126689  33.5982802  12.5849076  43.9876534  44.7672356
  13.3258789  44.5883688  44.6876818  12.8166999  43.2454172  44.2090399
   7.7290414  49.1732902  43.0450586   7.6143929  48.2718159  43.3457685
   6.8734932  49.4196598  42.6935402  14.8082252  57.1150642  44.6438086
  14.3646106  56.3287021  44.3258991  15.4699465  57.3029793  43.9781977
   9.5669373  58.6446444  39.1698765  10.1176798  58.5163507  38.3975759
   8.7280849  58.9441333  38.8193658  16.9063490  57.3953442  42.6719488
  16.8881965  58.2162323  42.1799757  17.8283410  57.2707517  42.8969629
  13.3636544  54.9097571  43.5142996  13.8964881  54.1485860  43.2842304
  12.8350625  54.6171223  44.2567150   4.5992090  52.3391168  31.8625240
   5.4367312  52.7488176  31.6458948   4.7770357  51.3990610  31.8325434
  16.4956522  50.0066249  27.5509073  15.9803145  50.7770853  27.7897460
  16.2233830  49.3331385  28.1742134  14.0803633  44.8515949  32.6094311
  13.2245229  44.4622800  32.4299950  14.4930584  44.9307910  31.7494097
  16.2842825  47.8793341  29.3768854  15.9792960  48.1939490  30.2278997
  17.2373267  47.9574760  29.4196187  14.7289257  54.0383564  31.0261808
  14.2010618  53.3036324  30.7135045  14.2276759  54.8158240  30.7801776
   9.4607984  44.7003230  33.3868419  10.0351736  44.4778412  32.6541612
  10.0478967  44.7691925  34.1397021   9.7877571  46.7307691  27.4064305
   8.9514884  47.0682378  27.7273579   9.6482341  46.5956671  26.4691442
  11.7630652  41.5744479  32.1143489  11.1095064  41.2593496  31.4900104
  11.7211126  40.9520220  32.8403312  12.8741857  51.8563774  24.0296781
  11.9668919  51.6253028  24.2287930  13.3712889  51.0601393  24.2170763
  15.7809936  60.5661281  26.9493467  15.1071635  60.8692978  27.5578425
  16.1675758  61.3690362  26.5998924  14.9968392  48.0626413  36.4391137
  14.0790954  48.2841360  36.2812825  15.4128536  48.1372723  35.5802844
  15.7803440  49.4617828  31.5693817  16.5275259  49.9739226  31.2600939
  16.0495030  49.1401881  32.4298210  14.0530090  51.9576369  28.5520771
  13.1441310  51.6735402  28.6493241  14.0825174  52.3775448  27.6924078
  19.2849358  55.5682959  32.3211939  18.8311685  54.7273868  32.3777129
  18.6543324  56.2044357  32.6586719  17.7282297  57.4059455  33.2561757
  18.0205271  57.9664512  32.5374122  18.2380918  57.6988016  34.0114916
   4.6218261  49.6781883  32.5335973   4.4242661  49.0851244  31.8087040
   4.0664925  49.3734093  33.2511912  12.6014984  49.5704990  34.6530566
  12.6563594  48.6178826  34.5773043  11.7906186  49.7264429  35.1371865
  13.7506178  53.4985113  25.8908850  13.3125608  52.7820972  25.4314487
  14.4916619  53.7261228  25.3293941  10.5407344  48.1882049  32.4120945
   9.7275210  48.4876220  32.8186137  11.0366338  47.7937738  33.1295428
  12.6915922  58.1839806  34.3455210  12.6492101  58.4100653  33.4163742
  13.6078621  57.9503181  34.4941011  10.0321419  45.7600405  38.0282180
  10.6720798  45.6189164  37.3305144   9.1998950  45.4734918  37.6520782
  10.8081723  55.0602835  34.1417173  11.6022321  54.5653155  33.9399748
  10.0973415  54.5320698  33.7784878  15.6276567  57.4420931  38.4929540
  15.6813590  58.0111867  39.2607256  14.7591349  57.6122816  38.1283577
   7.1164486  49.2045917  30.2176925   6.1862075  49.1430373  30.4346888
   7.2121958  48.6821870  29.4213567   7.0350035  45.7300730  32.8055167
   7.2956853  46.6446063  32.6964328   7.8567208  45.2625172  32.9551780
   8.5074961  47.1438487  39.9753992   9.1798014  46.9355849  39.3266640
   7.6804747  46.9460573  39.5359224  14.4100533  43.7700428  41.9919652
  13.7628448  44.4690378  41.8984129  15.1801548  44.2036572  42.3595901
  17.8179331  54.0349280  45.0670206  17.6664837  53.8059832  44.1500289
  17.8084010  54.9919882  45.0801551  14.5864667  51.6081193  40.0516472
  15.5156727  51.7592353  39.8785439  14.1655697  51.6965214  39.1965119
  13.3852999  55.6331857  37.8215010  13.2464085  55.2650642  38.6940948
  12.5967595  56.1479497  37.6498968  13.9801151  60.7340954  29.1640546
  14.1552907  60.2628997  29.9786169  13.2933939  61.3606720  29.3921807
  14.9358214  55.0113460  35.2103848  14.6008047  54.9714230  36.1061497
  14.4362160  54.3458176  34.7374258   8.9102458  50.4181090  40.7356429
   8.7722256  49.6861329  41.3367968   9.8207382  50.3289990  40.4540616
  17.8717406  52.3569494  25.4840907  17.2546576  51.6316323  25.3873960
  17.4033894  53.1178855  25.1407982  11.5384759  50.1301049  40.2240108
  12.2484377  49.4894242  40.1826727  11.4954067  50.3813944  41.1466289
  19.5271537  57.0668403  43.1446688  19.4684084  56.3827623  42.4777271
  19.9291056  57.8087393  42.6927314  10.2513693  47.1166267  42.0435748
   9.7151050  46.6657006  42.6957344   9.6630401  47.2512176  41.3006212
   9.6615952  46.5754919  24.6062212   8.7845418  46.4543719  24.2424458
  10.1373705  45.7840997  24.3541100  19.5288945  55.0307987  41.3760667
  18.6415723  54.6933908  41.4987066  20.0987496  54.2991018  41.6129433
   1.1818092  51.3632078  34.7003719   1.8689132  51.0493808  34.1124734
   1.0266220  52.2673443  34.4270970   5.9852814  46.2522275  39.1288742
   5.9011003  45.6447945  38.3939152   5.1635520  46.7431293  39.1298239
  13.0590098  59.6909439  38.3421910  12.9860270  60.4964411  38.8541215
  12.6167491  59.8901405  37.5169932  12.8479878  58.9281209  31.8524732
  12.0647400  59.4702889  31.9462957  13.5472623  59.4455189  32.2518973
  15.5188782  59.5896273  40.4980069  16.2316754  60.2243738  40.4255971
  15.0278810  59.6860139  39.6820071  17.2406309  53.4947526  32.0697361
  16.3062587  53.6148988  31.9002065  17.4182977  52.5919992  31.8057371
  12.7411497  46.8793221  34.2230622  12.3709284  46.3264262  34.9111528
  13.2370589  46.2751355  33.6705622  10.5700695  57.3390717  41.3185640
  11.2710155  57.9727199  41.4715034  10.0995810  57.6805448  40.5581279
  15.3309155  59.9295017  33.2466361  15.5131550  59.1116673  33.7094113
  16.1542141  60.1462709  32.8091251  15.6651320  58.8563202  30.5081409
  16.1939087  58.3455657  29.8951571  15.9279540  58.5405732  31.3726942
  14.4189554  50.6355135  45.6304227  13.7430191  50.5349264  46.3006603
  15.2417188  50.4794349  46.0940225   6.1668413  56.8727072  38.2516743
   6.7521850  56.1270759  38.3844647   5.9693252  57.1831028  39.1353407
   9.0207068  59.9078319  33.2679185   8.3517444  60.3924447  32.7843225
   8.8819938  60.1547539  34.1822564  13.1612337  61.9422062  39.8661843
  13.7130645  62.1053684  40.6310929  13.5018530  62.5326500  39.1941868
   8.1376830  44.2897212  40.4683728   8.2018157  45.1512043  40.0561126
   8.0743950  43.6771214  39.7356087   7.6129103  46.3620345  44.1156762
   8.2401142  45.9797422  44.7294287   6.7557022  46.1434547  44.4812455
  18.0123211  56.7683320  45.7210498  18.5563115  57.3813278  45.2265453
  17.4310056  57.3262898  46.2377511   4.3894646  48.1696774  30.0475117
   4.6848087  47.2607452  29.9942171   3.4882681  48.1484513  29.7256120
  16.2980724  59.8904038  36.8525526  16.1731864  59.0893778  36.3436471
  16.9559815  60.3850231  36.3639496   7.9188893  46.2452770  36.0302666
   7.1975478  46.8588738  35.8910139   8.7082148  46.7810535  35.9519312
  18.3615633  57.6913058  38.4805076  17.4145968  57.5718409  38.4083402
  18.7098406  56.8035556  38.5631337  10.7215206  43.5807197  42.3043318
  11.2449608  43.8269494  43.0669627  10.5027539  44.4127232  41.8846455
   6.1182487  45.8510872  30.1714442   5.7895193  44.9708250  29.9889548
   6.4721858  45.7958540  31.0590832  15.3662066  57.4865774  34.6809428
  15.2187028  56.5582482  34.8616998  16.1915559  57.5085865  34.1966503
   9.2324310  46.1383841  30.5389920   9.5720383  46.6669763  29.8168528
   9.6796431  46.4764247  31.3148487  18.9696188  58.3094333  35.7674301
  19.8942735  58.1037194  35.6298752  18.8011491  58.0610734  36.6763642
  11.9267751  44.5220892  39.9892988  11.5864571  43.7228705  40.3913668
  11.2206757  44.8222603  39.4169821  12.5784223  41.6070205  38.4420311
  13.4010292  41.1330683  38.3199201  12.8222286  42.3860688  38.9418997
  11.2192457  44.6358463  28.7383213  11.9400820  45.0139716  28.2346930
  10.5957762  45.3547340  28.8418191  10.1022802  48.2989325  36.2512290
   9.9567382  48.6129628  37.1436571   9.6248005  48.9174225  35.6983188
  11.9619185  45.2891873  36.2993179  11.9480753  44.3932966  35.9625477
  12.6791613  45.2962537  36.9331465  13.8145315  45.7229213  38.3446307
  13.5563093  46.6446284  38.3430637  13.2830356  45.3259648  39.0346771
  18.7591504  58.8280000  31.1236392  18.9328382  58.2626423  30.3710245
  19.2520395  59.6280895  30.9415882   4.5768464  50.8394670  39.1899951
   4.0321932  51.6154478  39.3220225   5.4547814  51.1865474  39.0319072
  11.3656080  44.1706253  31.5680749  11.4871992  43.2422900  31.7671637
  11.0758123  44.1844939  30.6559065   5.3634486  49.9664566  42.0830108
   4.6216222  50.1147201  42.6694738   5.0427230  50.2272831  41.2196857
  13.3078148  59.5080544  41.8810498  13.6165275  59.2629691  42.7533197
  14.1053630  59.7127183  41.3929368  13.3298760  61.6618454  34.1115874
  12.8903751  61.1694832  34.8048731  14.0806877  61.1191421  33.8707950
   5.8091099  57.8529995  34.1140502   6.6349119  57.5533766  33.7339146
   5.4585151  57.0837617  34.5630291  10.7772633  57.2056463  36.1838176
  10.1552642  56.5427168  35.8840404  11.4477499  57.2317595  35.5011824
   4.0099704  55.7716321  35.0729436   3.1731613  55.3438495  34.8913437
   3.9823350  55.9648764  36.0100227  10.8497160  45.6838251  45.7770682
  10.8985315  46.5600374  45.3948452  11.3919674  45.1415644  45.2042325
  21.3352006  56.2279374  45.0571819  20.5447549  56.2103513  44.5176318
  21.0985360  56.7667668  45.8120856  10.3386139  55.7560386  29.6596637
  10.4874260  56.4395850  29.0063309  11.1452583  55.7365476  30.1746092
  13.0796448  46.4369623  42.5317041  12.2099758  46.7303189  42.2599629
  13.3155929  47.0210068  43.2524304  22.9568078  55.4968782  42.6146569
  22.6652886  55.8598762  43.4510030  22.3440209  54.7835790  42.4359901
   8.0938772  51.7825564  30.6657705   7.8484814  50.8787894  30.8637916
   8.2634687  51.7842714  29.7237183   7.3634420  47.5153921  28.1643867
   6.6703665  47.5898276  27.5083903   7.1186172  46.7514265  28.6865384
  13.8381545  58.2508517  27.1308384  13.2655512  58.8698704  26.6778856
  14.4114339  58.8007878  27.6648306  17.0578805  58.5345667  28.2616966
  17.9909478  58.4691228  28.4649842  16.9702018  59.3701934  27.8031499
  14.2228343  49.5869329  24.4724436  15.1687448  49.4575537  24.5412854
  13.8442588  48.8483991  24.9493865  14.1067036  53.6387075  45.9325093
  15.0270045  53.8165674  46.1265140  14.0716619  52.6943121  45.7804793
  12.4071261  47.5119306  24.4079322  11.5002716  47.2152418  24.4842035
  12.6847242  47.2149124  23.5413608   3.3249201  48.8325669  34.8578368
   3.0051985  47.9790977  34.5652742   2.7782629  49.0474247  35.6136335
   7.1029109  51.5488110  38.5747875   7.3215118  52.4805218  38.5935908
   7.5154882  51.1896085  39.3602678  11.9756974  47.1221316  47.9650624
  11.8753701  48.0715673  47.8962715  11.7578516  46.7939555  47.0926694
  11.1770045  44.3706241  24.5491301  12.0389209  44.6961139  24.8087118
  11.3620389  43.5837737  24.0364367   3.1937461  52.4528581  36.8271490
   2.5000932  52.0382533  36.3141444   3.9410452  52.4949117  36.2304909
  11.8388244  50.5518455  46.7815685  11.3555326  51.3518815  46.9879574
  11.9249183  50.5626400  45.8283129   5.1074204  52.3846834  34.7037505
   5.0844892  52.4834522  33.7519388   5.4174840  53.2311985  35.0254671
   7.7661581  54.4422989  38.8184119   8.7204835  54.4106932  38.7514051
   7.5674105  53.9813613  39.6334345   8.3560964  53.0124105  41.3854917
   9.1753853  53.5068184  41.4089754   8.6297771  52.0956074  41.3572484
   6.1211810  59.9842609  35.8354317   5.9866278  59.2243010  35.2692315
   5.7043872  60.7083509  35.3683106  17.2570773  55.1679532  24.8430892
  17.9606623  55.3729535  25.4588548  16.5333422  55.7356294  25.1079976
  18.0868583  50.9189394  30.9633162  18.0303785  51.3757945  30.1240795
  18.6396926  50.1580078  30.7856005   9.2780936  60.8811926  36.0472759
   9.1613320  61.8257358  35.9451450   8.4573382  60.5785487  36.4358559
   3.6095878  47.3462239  42.0847114   4.2554741  46.8361193  42.5734339
   3.4013029  48.0830921  42.6590539  16.1349270  54.4143087  47.5839254
  17.0040430  54.5883739  47.2225889  15.6556021  55.2337504  47.4614984
  10.3035450  61.5340188  39.2628688  11.2062697  61.5663798  39.5795183
  10.0772820  60.6040639  39.2775024  12.0589052  60.2871174  35.9238767
  11.1084683  60.2873036  35.8103139  12.3621538  59.5403909  35.4074801
   7.9493369  44.4929856  46.1822128   8.8124830  44.1366661  46.3925452
   7.3758779  44.1543751  46.8697532  27.7941746  66.1231713  36.9884529
  28.4320156  66.0038460  36.2847869  27.6762589  67.0712557  37.0472481
  24.6031452  66.0759141  36.9246054  24.2649963  65.9600206  36.0366588
  25.4721220  65.6750306  36.9047060  25.0851235  67.2293993  42.8832259
  25.0739876  66.8346791  42.0112763  25.2471874  66.4960065  43.4766031
  22.7314703  67.3907953  38.4212803  23.3278275  67.1663975  37.7069766
  22.7889674  66.6492698  39.0238251  22.3039731  64.8447388  26.2562994
  22.5565252  64.3228910  25.4946457  21.3664290  64.6813534  26.3589677
  27.3483014  63.8483167  34.0637737  28.1346103  63.4302590  33.7128154
  27.6121718  64.7529259  34.2319385  27.5193092  69.2856017  28.7626394
  26.8838925  69.3590643  29.4747298  27.1890498  69.8749616  28.0845473
  32.7491441  63.7858400  34.9670715  33.4816613  63.2157617  35.2008545
  31.9930797  63.3980000  35.4077221  22.0236020  66.7475494  28.4587369
  21.9072278  66.0720398  29.1268453  22.1338280  66.2607868  27.6419522
  24.3667561  66.2085641  32.1634058  24.0025768  65.6816262  32.8746979
  25.2234677  65.8184110  31.9900543  24.0073048  61.2375541  27.1595406
  24.1747450  62.1055777  27.5265877  23.8170217  61.4002823  26.2356696
  20.2160863  66.1506317  34.8597941  19.2911359  66.0182531  35.0675633
  20.4645276  66.9300536  35.3567884  30.1645525  62.2175060  36.5058674
  29.2562402  62.1490469  36.2117435  30.1133121  62.6947005  37.3340500
  23.9862269  63.6933198  28.1442073  23.8661894  64.1390249  28.9827554
  23.2914857  64.0418516  27.5855611  24.2386391  63.6364706  44.4493571
  23.4619725  64.1958626  44.4396436  24.8776954  64.1221489  44.9708442
  29.6847335  64.1654672  28.9722407  30.5965191  64.3982058  28.7970105
  29.1756982  64.7491716  28.4097486  22.4932763  66.4450159  44.0111538
  23.2347447  66.9835203  43.7346362  21.7869749  67.0716448  44.1683090
  27.9688103  68.5879299  42.6083700  28.3771459  68.1461710  41.8638332
  27.2465364  68.0131927  42.8617893  24.3219173  63.5251906  39.9817257
  25.1680368  63.9491320  40.1251906  24.2617810  62.8685531  40.6755820
  28.2916917  69.1480490  36.3635989  27.6625780  69.3126204  35.6612057
  27.9042579  69.5622100  37.1346953  32.1706149  70.0834928  33.7180353
  31.4857187  70.4633829  33.1677386  32.2549999  70.6930255  34.4512300
  27.4718618  61.1856275  41.6398430  27.2279550  61.9398335  41.1032706
  27.7478549  61.5641622  42.4745678  29.4257081  67.7294887  40.3175696
  29.6373976  68.3726647  39.6410077  29.3786829  66.8957204  39.8497626
  27.0283310  60.3412708  37.2212268  26.1667789  60.6393961  37.5129006
  27.0545744  60.5583107  36.2893301  22.7813765  65.0078051  30.4375639
  23.4837809  65.4599094  30.9049565  22.4494394  64.3661869  31.0655532
  21.2294127  63.5989807  44.8126848  20.5992787  64.2806088  45.0462245
  21.1230215  63.4872889  43.8679987  16.5239099  63.2661603  35.7392773
  15.7338153  63.5219132  35.2632883  17.0150347  64.0809941  35.8444813
  30.5402909  70.6066842  38.4898053  31.3620353  70.2047030  38.2080735
  30.5365312  70.5035077  39.4414169  18.4753845  63.6306182  32.6976249
  17.6785008  63.7424877  33.2159745  18.2479437  63.9692835  31.8317140
  14.8076802  63.5192094  38.1707763  15.0584841  64.4039104  38.4365339
  15.3436351  63.3396695  37.3982855  38.6308902  66.9505591  34.8383025
  37.8772610  66.3812989  34.6827029  38.7656443  66.9168255  35.7853660
  20.5074870  57.9010573  47.1752099  20.1141815  57.3476772  47.8499744
  21.3241010  58.2121152  47.5658617  23.4242831  59.3168452  44.7672356
  24.1652544  59.9175605  44.6876818  23.6560753  58.5746090  44.2090399
  18.5684169  64.5024819  43.0450586  18.4537684  63.6010077  43.3457685
  17.7128686  64.7488516  42.6935402  27.3350276  65.3358166  27.5509073
  26.8196900  66.1062771  27.7897460  27.0627585  64.6623302  28.1742134
  24.9197387  60.1807867  32.6094311  24.0638984  59.7914717  32.4299950
  25.3324339  60.2599828  31.7494097  26.4496534  57.7154210  37.0085871
  25.9461329  57.6784345  36.1953676  26.7427141  58.6246953  37.0682528
  22.6939420  57.7992940  36.0152053  23.5592417  57.6035749  35.6557942
  22.7616929  57.5703292  36.9421409  32.3084550  68.0890521  29.4862246
  31.5313993  67.7501680  29.0417408  32.9876031  68.0943144  28.8117211
  27.1236579  63.2085258  29.3768854  26.8186715  63.5231407  30.2278997
  28.0767021  63.2866678  29.4196187  30.5475857  67.5624502  36.1428854
  29.8899532  68.2523763  36.2308983  31.3516256  67.9520934  36.4862841
  20.3001739  60.0295148  33.3868419  20.8745491  59.8070329  32.6541612
  20.8872721  60.0983842  34.1397021  29.3581316  65.9168875  34.1932796
  29.8713198  66.5498867  34.6954506  30.0082540  65.3170070  33.8276156
  20.6271326  62.0599609  27.4064305  19.7908638  62.3974295  27.7273579
  20.4876096  61.9248589  26.4691442  22.6024407  56.9036397  32.1143489
  21.9488819  56.5885414  31.4900104  22.5604881  56.2812137  32.8403312
  23.7135611  67.1855692  24.0296781  22.8062673  66.9544945  24.2287930
  24.2106643  66.3893311  24.2170763  25.8362147  63.3918330  36.4391137
  24.9184708  63.6133277  36.2812825  26.2522291  63.4664641  35.5802844
  26.6197195  64.7909746  31.5693817  27.3669014  65.3031143  31.2600939
  26.8888784  64.4693799  32.4298210  24.8923845  67.2868287  28.5520771
  23.9835064  67.0027320  28.6493241  24.9218929  67.7067365  27.6924078
  29.0676032  61.8266862  33.5512606  28.3298789  61.3144248  33.8822849
  29.3202805  61.3867244  32.7395883  15.4612015  65.0073801  32.5335973
  15.2636415  64.4143162  31.8087040  14.9058679  64.7026011  33.2511912
  23.4408739  64.8996907  34.6530566  23.4957349  63.9470744  34.5773043
  22.6299941  65.0556346  35.1371865  24.5899933  68.8277030  25.8908850
  24.1519363  68.1112889  25.4314487  25.3310373  69.0553145  25.3293941
  21.3801099  63.5173967  32.4120945  20.5668964  63.8168138  32.8186137
  21.8760093  63.1229656  33.1295428  26.9775310  63.9815792  41.2435839
  27.3324698  64.2087265  42.1030305  27.6247442  64.3134168  40.6213094
  32.7073047  67.1034227  31.9485168  32.5690946  67.2935823  31.0206357
  32.3509266  67.8653610  32.4053219  20.8715174  61.0892323  38.0282180
  21.5114553  60.9481082  37.3305144  20.0392704  60.8026836  37.6520782
  32.7342427  69.1710754  36.9596440  33.1678934  69.0786044  37.8079494
  33.4474008  69.1468255  36.3216456  17.9558241  64.5337835  30.2176925
  17.0255829  64.4722290  30.4346888  18.0515713  64.0113788  29.4213567
  17.8743790  61.0592648  32.8055167  18.1350607  61.9737981  32.6964328
  18.6960962  60.5917090  32.9551780  19.3468715  62.4730405  39.9753992
  20.0191769  62.2647767  39.3266640  18.5198502  62.2752491  39.5359224
  33.5957977  69.2134455  39.4929325  33.7893867  70.1180266  39.7388600
  33.4958595  68.7541874  40.3267910  25.2494287  59.0992346  41.9919652
  24.6022202  59.7982295  41.8984129  26.0195303  59.5328490  42.3595901
  28.6573085  69.3641198  45.0670206  28.5058592  69.1351750  44.1500289
  28.6477765  70.3211799  45.0801551  25.4258422  66.9373111  40.0516472
  26.3550482  67.0884270  39.8785439  25.0049452  67.0257131  39.1965119
  19.7496213  65.7473008  40.7356429  19.6116010  65.0153247  41.3367968
  20.6601136  65.6581908  40.4540616  28.7111160  67.6861412  25.4840907
  28.0940331  66.9608240  25.3873960  28.2427649  68.4470772  25.1407982
  22.3778513  65.4592967  40.2240108  23.0878132  64.8186159  40.1826727
  22.3347821  65.7105862  41.1466289  21.0907447  62.4458185  42.0435748
  20.5544804  61.9948923  42.6957344  20.5024156  62.5804094  41.3006212
  20.5009706  61.9046836  24.6062212  19.6239172  61.7835637  24.2424458
  20.9767459  61.1132915  24.3541100  30.3682699  70.3599904  41.3760667
  29.4809478  70.0225826  41.4987066  30.9381250  69.6282936  41.6129433
  16.8246568  61.5814193  39.1288742  16.7404757  60.9739862  38.3939152
  16.0029275  62.0723211  39.1298239  26.9970282  60.0667756  34.4958937
  27.4938982  59.3137718  34.1760008  26.2257264  60.1032073  33.9302147
  34.8500040  65.7708122  36.1377229  34.8389916  66.6532837  35.7671162
  33.9817419  65.4179673  35.9431766  28.0800063  68.8239443  32.0697361
  27.1456342  68.9440906  31.9002065  28.2576731  67.9211910  31.8057371
  23.5805251  62.2085139  34.2230622  23.2103039  61.6556180  34.9111528
  24.0764344  61.6043273  33.6705622  31.4672614  64.6656763  32.6047395
  31.9333067  65.4984754  32.5307698  31.9180115  64.2001744  33.3092653
  29.4389277  57.0337350  36.6438296  28.5252357  57.2641577  36.8120503
  29.8682379  57.1175794  37.4952329  29.2095736  65.2227242  39.1438190
  28.5567186  65.4703149  38.4890643  29.5876115  64.4091380  38.8100668
  25.2583309  65.9647053  45.6304227  24.5823946  65.8641182  46.3006603
  26.0810942  65.8086266  46.0940225  18.9770585  59.6189130  40.4683728
  19.0411911  60.4803961  40.0561126  18.9137705  59.0063132  39.7356087
  18.4522857  61.6912262  44.1156762  19.0794896  61.3089340  44.7294287
  17.5950776  61.4726464  44.4812455  15.2288400  63.4988692  30.0475117
  15.5241841  62.5899370  29.9942171  14.3276436  63.4776431  29.7256120
  18.7582647  61.5744688  36.0302666  18.0369233  62.1880656  35.8910139
  19.5475903  62.1102453  35.9519312  21.5608961  58.9099115  42.3043318
  22.0843362  59.1561411  43.0669627  21.3421294  59.7419149  41.8846455
  16.9576242  61.1802789  30.1714442  16.6288948  60.3000168  29.9889548
  17.3115612  61.1250458  31.0590832  20.0718065  61.4675759  30.5389920
  20.4114137  61.9961680  29.8168528  20.5190185  61.8056165  31.3148487
  22.7661506  59.8512810  39.9892988  22.4258326  59.0520623  40.3913668
  22.0600512  60.1514521  39.4169821  23.4177977  56.9362122  38.4420311
  24.2404047  56.4622600  38.3199201  23.6616041  57.7152606  38.9418997
  22.0586212  59.9650381  28.7383213  22.7794574  60.3431633  28.2346930
  21.4351516  60.6839257  28.8418191  26.2017335  60.6695530  29.6741545
  26.4180949  61.5520167  29.3730373  25.7211402  60.2781743  28.9447187
  20.9416556  63.6281243  36.2512290  20.7961137  63.9421546  37.1436571
  20.4641760  64.2466143  35.6983188  22.8012939  60.6183791  36.2993179
  22.7874508  59.7224884  35.9625477  23.5185367  60.6254455  36.9331465
  24.6539070  61.0521131  38.3446307  24.3956848  61.9738202  38.3430637
  24.1224110  60.6551566  39.0346771  22.2049835  59.4998171  31.5680749
  22.3265746  58.5714817  31.7671637  21.9151877  59.5136857  30.6559065
  25.0741025  57.1853082  34.7047469  25.0962722  57.2492415  33.7499449
  25.4909084  56.3457590  34.8987975  35.4524650  66.9208341  32.7426692
  35.8955796  66.1715666  32.3445815  34.5751160  66.9118477  32.3600424
  16.2028240  65.2956483  42.0830108  15.4609976  65.4439119  42.6694738
  15.8820984  65.5564749  41.2196857  32.4851854  70.9238388  29.7520621
  33.0103178  71.2625661  29.0269941  32.3974207  69.9885403  29.5683756
  21.6890915  61.0130168  45.7770682  21.7379070  61.8892291  45.3948452
  22.2313429  60.4707562  45.2042325  32.2943635  68.4063758  42.3704548
  32.3441640  68.2413766  43.3120070  32.1857559  67.5391017  41.9802428
  29.5847398  64.3894686  43.6863854  30.4857260  64.2501151  43.3947852
  29.6595372  64.5549141  44.6262032  23.9190203  61.7661541  42.5317041
  23.0493512  62.0595107  42.2599629  24.1549683  62.3501986  43.2524304
  33.7961832  70.8260700  42.6146569  33.5046640  71.1890680  43.4510030
  33.1833963  70.1127708  42.4359901  34.9957514  68.3913579  35.1349139
  35.8304406  68.8303383  35.2986700  35.1316643  67.9152233  34.3157385
  32.0449020  65.9493314  41.0826627  32.5203142  66.1420961  40.2745479
  31.1214586  66.0052500  40.8370011  26.6229237  57.9841158  40.0482461
  27.1411181  58.7202185  39.7228950  26.2684370  58.2905151  40.8829220
  18.2028174  62.8445839  28.1643867  17.5097419  62.9190194  27.5083903
  17.9579926  62.0806183  28.6865384  30.7450689  62.8259074  39.3154933
  31.6968112  62.9257172  39.3367157  30.5754140  62.0337343  39.8253017
  28.7665069  59.9114658  39.5014334  28.1715001  60.1919670  38.8060822
  28.4814765  60.4008558  40.2731075  33.2238767  66.0465194  38.4297232
  33.1915087  65.1081195  38.6156916  33.8339391  66.1249231  37.6963057
  25.0622098  64.9161247  24.4724436  26.0081203  64.7867455  24.5412854
  24.6836343  64.1775909  24.9493865  33.3733256  62.8376237  38.4755516
  32.8572304  62.0534694  38.2885444  34.2573204  62.5094954  38.6402035
  31.0343982  56.5817253  34.4351328  30.8368804  56.2732341  35.3194660
  31.6443688  57.3078892  34.5649258  39.0415317  67.1081201  37.5703269
  39.7718705  66.8466489  38.1310973  38.4322262  66.3709923  37.6105337
  37.1230614  65.2489063  38.1677720  36.3963778  65.1145028  37.5594212
  36.7077901  65.5565892  38.9734438  24.9460790  68.9678993  45.9325093
  25.8663800  69.1457592  46.1265140  24.9110374  68.0235038  45.7804793
  23.2465015  62.8411223  24.4079322  22.3396470  62.5444336  24.4842035
  23.5240996  62.5441041  23.5413608  14.1642955  64.1617587  34.8578368
  13.8445740  63.3082895  34.5652742  13.6176384  64.3766165  35.6136335
  24.8627081  57.3848113  30.5623563  24.0527809  57.0395198  30.9378809
  25.5511498  57.0755657  31.1511175  26.7917629  56.4626160  32.1847860
  27.3448668  56.8821613  32.8437883  27.0287715  55.5361908  32.2270816
  22.8150728  62.4513234  47.9650624  22.7147455  63.4007590  47.8962715
  22.5972270  62.1231472  47.0926694  22.0163800  59.6998159  24.5491301
  22.8782964  60.0253057  24.8087118  22.2014144  58.9129654  24.0364367
  30.1696436  58.5726685  31.6926524  29.5895105  59.2311489  31.3104576
  29.9032369  57.7504030  31.2813941  28.6200003  57.9731743  33.8947844
  29.1199781  58.0848277  33.0862163  29.2635610  57.6692796  34.5348653
  22.6781998  65.8810372  46.7815685  22.1949080  66.6810732  46.9879574
  22.7642937  65.8918317  45.8283129  28.9521314  60.7326775  30.7482872
  28.0647169  61.0176426  30.5303067  29.3675303  60.5720539  29.9010149
  32.3035850  60.7573296  34.4637211  33.0796240  61.2469749  34.7361828
  31.5783985  61.1831351  34.9209081  28.9262338  66.2481311  30.9633162
  28.8697539  66.7049863  30.1240795  29.4790680  65.4871996  30.7856005
  32.7367144  62.0371043  31.7883282  32.4804078  61.6367679  32.6191489
  32.1120012  62.7514837  31.6633421  37.0479482  64.7767116  34.2954573
  36.4879040  64.8460306  35.0686135  36.4422985  64.6008101  33.5754069
  29.6597117  67.4386093  28.2585691  29.6045921  67.2730364  27.3174136
  29.0343173  68.1462126  28.4147881  14.4489632  62.6754157  42.0847114
  15.0948496  62.1653111  42.5734339  14.2406783  63.4122839  42.6590539
  18.7887123  59.8221774  46.1822128  19.6518585  59.4658579  46.3925452
  18.2152534  59.4835669  46.8697532  41.1110616  72.8271892  39.4265324
  40.7793941  73.6967303  39.2026539  40.5156230  72.5108176  40.1059354
  38.2093748  70.6741473  39.0436638  37.8658017  71.5643114  38.9675748
  38.5772711  70.4843130  38.1806223  40.0081414  69.9335032  34.1454375
  40.3140290  69.0732395  33.8580290  40.7334018  70.5252652  33.9453369
  40.2783032  72.3629267  36.6438296  39.3646111  72.5933494  36.8120503
  40.7076133  72.4467711  37.4952329  35.9134780  72.5144999  34.7047469
  35.9356477  72.5784332  33.7499449  36.3302839  71.6749508  34.8987975
  37.7135585  69.7333358  35.5683358  37.9937339  69.0656547  36.1943784
  38.4986192  69.9262454  35.0558021  41.8737737  71.9109171  34.4351328
  41.6762558  71.6024259  35.3194660  42.4837443  72.6370810  34.5649258
  35.7020835  72.7140031  30.5623563  34.8921564  72.3687116  30.9378809
  36.3905252  72.4047574  31.1511175  37.6311384  71.7918078  32.1847860
  38.1842422  72.2113531  32.8437883  37.8681470  70.8653826  32.2270816
  41.0090191  73.9018603  31.6926524  40.4288860  74.5603407  31.3104576
  40.7426123  73.0795947  31.2813941  39.4593757  73.3023660  33.8947844
  39.9593535  73.4140195  33.0862163  40.1029365  72.9984713  34.5348653
  37.6239117  68.8628896  32.0916947  36.8571512  68.3087383  32.2373629
  38.0349822  68.9350765  32.9531098   6.1154238  12.4710000  23.7129836
   6.7532648  12.3516747  23.0093176   5.9975081  13.4190844  23.7717788
   2.9243944  12.4237428  23.6491360   2.5862456  12.3078493  22.7611895
   3.7933712  12.0228593  23.6292366   3.4063727  13.5772280  29.6077566
   3.3952368  13.1825078  28.7358069   3.5684367  12.8438352  30.2011337
   1.0527195  13.7386240  25.1458109   1.6490767  13.5142263  24.4315072
   1.1102167  12.9970986  25.7483557   5.6695506  10.1961454  20.7883044
   6.4558596   9.7780877  20.4373461   5.9334211  11.1007546  20.9564692
  11.0703934  10.1336687  21.6916022  11.8029106   9.5635904  21.9253852
  10.3143289   9.7458287  22.1322528   5.0860873  16.0470807  25.5506543
   4.7861597  16.9495846  25.4422351   4.7411933  15.7802990  26.4027696
   8.4858017   8.5653347  23.2303981   7.5774895   8.4968756  22.9362742
   8.4345613   9.0425292  24.0585806   2.5598883   9.9842993  31.1738878
   1.7832217  10.5436913  31.1641743   3.1989446  10.4699776  31.6953748
  10.3519664   6.7669786  25.0081855   9.7094044   7.0602319  24.3621649
   9.8474592   6.6522706  25.8135051   6.2900595  14.9357587  29.3329007
   6.6983951  14.4939997  28.5883639   5.5677856  14.3610214  29.5863199
   6.6129410  15.4958777  23.0881295   5.9838272  15.6604491  22.3857363
   6.2255072  15.9100387  23.8592259  10.4918642  16.4313215  20.4425659
   9.8069680  16.8112117  19.8922692  10.5762491  17.0408542  21.1757607
   5.7931110   7.5334562  28.3643737   5.5492042   8.2876622  27.8278013
   6.0691041   7.9119909  29.1990984   7.7469573  14.0773174  27.0421003
   7.9586468  14.7204934  26.3655384   7.6999321  13.2435491  26.5742933
   2.1657371  15.2333185  20.3531381   2.6295717  15.5120888  19.5636003
   1.9014170  14.3316630  20.1704471   8.8615401  16.9545130  25.2143360
   9.6832845  16.5525317  24.9326042   8.8577804  16.8513364  26.1659476
   2.6272005  16.5029173  27.3704071   2.6916437  16.9649580  28.2062242
   1.9182928  15.8726538  27.4986380  16.9521394  13.2983878  21.5628332
  16.1985103  12.7291276  21.4072336  17.0868935  13.2646543  22.5098966
   2.3420022  18.1697280  17.2383051   2.2065697  19.0148816  17.6667899
   2.8829835  18.3716558  16.4748985   3.9688499  18.7920847  31.3683393
   3.5252353  18.0057226  31.0504297   4.6305712  18.9799997  30.7027284
   6.0669737  19.0723647  29.3964794   6.0488212  19.8932528  28.9045063
   6.9889657  18.9477722  29.6214935   2.5242791  16.5867776  30.2388303
   3.0571128  15.8256065  30.0087611   1.9956872  16.2941428  30.9812457
  10.6297043  14.4368808  16.2107553   9.8526485  14.0979968  15.7662715
  11.3088524  14.4421431  15.5362518   8.8688350  13.9102789  22.8674161
   8.2112024  14.6002051  22.9554290   9.6728749  14.2999221  23.2108147
   7.6793808  12.2647162  20.9178103   8.1925690  12.8977154  21.4199812
   8.3295032  11.6648358  20.5521463   4.9416183  22.2431486  13.6738774
   4.2677881  22.5463183  14.2823732   5.3282005  23.0460567  13.3244231
   4.1574639   9.7396618  23.1636443   3.2397201   9.9611565  23.0058131
   4.5734783   9.8142928  22.3048151   8.4455605  17.2453163  19.0457245
   7.9917932  16.4044073  19.1022436   7.8149571  17.8814562  19.3832025
   6.8888544  19.0829660  19.9807063   7.1811518  19.6434717  19.2619429
   7.3987164  19.3758221  20.7360223   1.7621231  11.2475195  21.3775873
   1.8169841  10.2949031  21.3018350   0.9512433  11.4034634  21.8617171
   1.8522169  19.8610011  21.0700517   1.8098348  20.0870858  20.1409049
   2.7684868  19.6273386  21.2186318   5.2987803  10.3294079  27.9681146
   5.6537190  10.5565552  28.8275612   5.9459934  10.6612456  27.3458401
  11.0285540  13.4512515  18.6730475  10.8903438  13.6414111  17.7451664
  10.6721758  14.2131897  19.1298526  11.0554919  15.5189042  23.6841746
  11.4891426  15.4264331  24.5324800  11.7686500  15.4946542  23.0461762
   4.7882814  19.1191136  25.2174847   4.8419836  19.6882072  25.9852563
   3.9197596  19.2893021  24.8528884  11.9170469  15.5612742  26.2174632
  12.1106359  16.4658553  26.4633907  11.8171087  15.1020161  27.0513217
   6.9785578  15.7119485  31.7915512   6.8271084  15.4830037  30.8745596
   6.9690257  16.6690087  31.8046857   3.7470914  13.2851398  26.7761779
   4.6762974  13.4362557  26.6030746   3.3261944  13.3735419  25.9210425
   2.5459246  17.3102062  24.5460316   2.4070331  16.9420847  25.4186255
   1.7573842  17.8249702  24.3744274   3.1407398  22.4111159  15.8885853
   3.3159153  21.9399202  16.7031476   2.4540186  23.0376925  16.1167114
   4.0964461  16.6883665  21.9349154   3.7614293  16.6484435  22.8306804
   3.5968407  16.0228381  21.4619564   0.6991005  11.8071254  26.9485415
   1.4090624  11.1664446  26.9072033   0.6560314  12.0584149  27.8711596
   8.6877784  18.7438608  29.8691994   8.6290330  18.0597828  29.2022577
   9.0897303  19.4857598  29.4172620   8.6895191  16.7078192  28.1005974
   7.8021970  16.3704113  28.2232373   9.2593743  15.9761223  28.3374739
   2.2196345  21.3679644  25.0667217   2.1466516  22.1734615  25.5786522
   1.7773738  21.5671610  24.2415239   2.0086124  20.6051414  18.5770039
   1.2253646  21.1473094  18.6708263   2.7078870  21.1225394  18.9764280
  13.1712532  12.1186409  22.8622536  13.1602408  13.0011124  22.4916469
  12.3029911  11.7657960  22.6677073   4.6795028  21.2666478  27.2225376
   5.3923001  21.9013943  27.1501277   4.1885057  21.3630344  26.4065378
   6.4012555  15.1717731  18.7942667   5.4668834  15.2919193  18.6247372
   6.5789224  14.2690197  18.5302677   9.7885107  11.0135050  19.3292702
  10.2545559  11.8463042  19.2553004  10.2392607  10.5480031  20.0337960
   7.8561338  17.3578871  16.3278854   8.1321182  17.2435466  17.2372728
   6.9865836  16.9596356  16.2891027   7.5308228  11.5705529  25.8683497
   6.8779678  11.8181436  25.2135950   7.9088608  10.7569667  25.5345974
   4.4915402  21.6065222  19.9711667   4.6737796  20.7886878  20.4339420
   5.3148388  21.8232914  19.5336557   4.8257567  20.5333407  17.2326716
   5.3545334  20.0225862  16.6196878   5.0885787  20.2175937  18.0972249
   3.5795801  12.3125340  32.3549534   2.9036438  12.2119469  33.0251909
   4.4023435  12.1564554  32.8185531   2.3218584  23.6192267  26.5907150
   2.8736892  23.7823889  27.3556235   2.6624777  24.2096705  25.9187175
   7.1729458  18.4453525  32.4455804   7.7169362  19.0583483  31.9510759
   6.5916303  19.0033103  32.9622817   5.4586971  21.5674243  23.5770832
   5.3338110  20.7663983  23.0681778   6.1166062  22.0620436  23.0884802
   7.5221879  19.3683263  25.2050382   6.5752215  19.2488614  25.1328709
   7.8704653  18.4805761  25.2876644   4.5268313  19.1635979  21.4054735
   4.3793275  18.2352687  21.5862305   5.3521806  19.1856070  20.9211810
   8.1302435  19.9864538  22.4919607   9.0548982  19.7807399  22.3544058
   7.9617738  19.7380939  23.4008949   7.9197751  20.5050205  17.8481699
   8.0934628  19.9396628  17.0955551   8.4126642  21.3051100  17.6661189
  13.7737142  13.2686628  19.4671998  14.2168288  12.5193954  19.0691122
  12.8963652  13.2596765  19.0845730   8.9072923  19.8216970  14.9478597
   9.6023828  20.4423662  15.1665912   9.2496073  18.9712321  15.2230975
  10.8064346  17.2716675  16.4765928  11.3315670  17.6103948  15.7515248
  10.7186699  16.3363691  16.2929062   2.4684395  21.1850749  28.6055804
   2.7771522  20.9399896  29.4778504   3.2659877  21.3897387  28.1174675
   2.4905007  23.3388659  20.8361181   2.0509997  22.8465037  21.5294038
   3.2413124  22.7961626  20.5953256  10.4958252  17.9049579  31.7817126
   9.7053796  17.8873718  31.2421625  10.2591607  18.4437873  32.5366162
  10.6156127  14.7542045  29.0949854  10.6654132  14.5892053  30.0365377
  10.5070051  13.8869304  28.7047735   7.9059890  10.7372973  30.4109161
   8.8069753  10.5979438  30.1193159   7.9807864  10.9027428  31.3507338
  12.1174324  17.1738987  29.3391876  11.8259133  17.5368967  30.1755337
  11.5046456  16.4605995  29.1605208  13.3170007  14.7391867  21.8594446
  14.1516898  15.1781671  22.0232006  13.4529135  14.2630520  21.0402692
  10.3661513  12.2971601  27.8071934  10.8415634  12.4899248  26.9990785
   9.4427078  12.3530787  27.5615317   9.0663182   9.1737362  26.0400239
  10.0180604   9.2735459  26.0612463   8.8966632   8.3815630  26.5498324
   7.0877561   6.2592945  26.2259640   6.4927493   6.5397958  25.5306129
   6.8027258   6.7486846  26.9976381   6.2185052  20.2115872  14.9862273
   7.1515725  20.1461433  15.1895148   6.1308264  21.0472138  14.5276806
  11.5451259  12.3943481  25.1542539  11.5127579  11.4559482  25.3402223
  12.1551883  12.4727518  24.4208364  11.6945748   9.1854525  25.2000822
  11.1784796   8.4012981  25.0130751  12.5785696   8.8573241  25.3647342
  17.3627809  13.4559488  24.2948576  18.0931198  13.1944776  24.8556279
  16.7534755  12.7188210  24.3350644  15.4443106  11.5967351  24.8923027
  14.7176270  11.4623316  24.2839519  15.0290393  11.9044179  25.6979745
   3.2673283  15.3157280  32.6570400   4.1876292  15.4935879  32.8510447
   3.2322866  14.3713326  32.5050099   0.9994491  12.2288660  33.5060992
   0.5161572  13.0289020  33.7124881   1.0855430  12.2396604  32.5528436
  10.6248343   7.1051584  21.1882518  11.4008733   7.5948036  21.4607135
   9.8996477   7.5309638  21.6454388  13.0620901   7.8179203  22.2456459
  13.6565392   7.5774939  21.5349767  13.1347485   7.0986333  22.8729995
  11.0579636   8.3849330  18.5128588  10.8016570   7.9845966  19.3436796
  10.4332504   9.0993124  18.3878728  15.3691974  11.1245404  21.0199880
  14.8091532  11.1938593  21.7931442  14.7635477  10.9486388  20.2999376
   5.2955517  16.0913292  34.3084561   6.1646676  16.2653944  33.9471196
   4.8162268  16.9107709  34.1860290  16.9547992  27.8001918  23.7129836
  17.5926402  27.6808665  23.0093176  16.8368835  28.7482762  23.7717788
  13.7637699  27.7529346  23.6491360  13.4256210  27.6370410  22.7611895
  14.6327467  27.3520511  23.6292366   9.6224514  29.6064822  19.6388251
   9.0589380  29.5154759  18.8704539   9.5076909  28.7864727  20.1190744
  14.2457482  28.9064197  29.6077566  14.2346122  28.5116996  28.7358069
  14.4078121  28.1730270  30.2011337   7.1688946  31.1016014  22.4772472
   7.9610238  30.7606838  22.0618771   7.4085597  31.2110989  23.3974625
  15.2024073  33.2735790  14.9502716  14.5512053  33.8589870  14.5636730
  15.9968436  33.8041985  15.0097754   9.1279700  30.3624927  15.3489850
   9.9010576  29.8153914  15.2102726   9.4805099  31.2269176  15.5604312
  10.9664743  31.6901309  28.5556750  10.6754609  32.5946940  28.4403416
  11.6021727  31.7317837  29.2700819  11.8920950  29.0678158  25.1458109
  12.4884522  28.8434180  24.4315072  11.9495921  28.3262903  25.7483557
  11.4645978  26.5217593  12.9808300  11.7171499  25.9999114  12.2191763
  10.5270537  26.3583739  13.0834984  16.5089261  25.5253372  20.7883044
  17.2952350  25.1072795  20.4373461  16.7727965  26.4299464  20.9564692
  16.6799338  30.9626222  15.4871700  16.0445171  31.0360848  16.1992605
  16.3496745  31.5519821  14.8090780  11.1842267  28.4245699  15.1832675
  11.0678525  27.7490602  15.8513760  11.2944527  27.9378073  14.3664828
  13.5273808  27.8855846  18.8879365  13.1632015  27.3586467  19.5992286
  14.3840924  27.4954315  18.7145850  19.4323108  19.1750179  26.1510631
  19.1006433  20.0445590  25.9271846  18.8368722  18.8586463  26.8304661
  13.1679295  22.9145746  13.8840713  13.3353697  23.7825982  14.2511184
  12.9776464  23.0773028  12.9602002   9.3767109  27.8276522  21.5843248
   8.4517606  27.6952736  21.7920940   9.6251523  28.6070741  22.0813190
  19.3251772  23.8945265  23.2303981  18.4168649  23.8260673  22.9362742
  19.2739368  24.3717210  24.0585806  13.1468516  25.3703403  14.8687380
  13.0268141  25.8160454  15.7072860  12.4521104  25.7188721  14.3100918
   6.7375920  27.4709795  22.4187037   6.8668302  27.7244274  23.3326449
   6.0573372  28.0637503  22.0991692  10.9075408  38.1407045  18.5177511
  10.8299437  39.0914870  18.5965992  10.3037051  37.7952918  19.1752437
  13.3992638  25.3134911  31.1738878  12.6225972  25.8728831  31.1641743
  14.0383201  25.7991694  31.6953748  21.1913418  22.0961703  25.0081855
  20.5487798  22.3894237  24.3621649  20.6868347  21.9814624  25.8135051
  18.8453582  25.8424877  15.6967714  19.7571438  26.0752263  15.5215411
  18.3363229  26.4261921  15.1342793  11.6539010  28.1220364  30.7356845
  12.3953694  28.6605408  30.4591669  10.9475995  28.7486653  30.8928397
  17.1294349  30.2649504  29.3329007  17.5377705  29.8231915  28.5883639
  16.4071611  29.6902132  29.5863199  13.4825420  25.2022111  26.7062563
  14.3286615  25.6261525  26.8497212  13.4224057  24.5455735  27.4001127
  16.6324865  22.8626480  28.3643737  16.3885797  23.6168540  27.8278013
  16.9084795  23.2411827  29.1990984  16.1889557  22.0182913  23.9457575
  15.3274036  22.3164166  24.2374312  16.2151991  22.2353311  23.0138607
  13.0051126  30.5625103  20.3531381  13.4689472  30.8412806  19.5636003
  12.7407924  29.6608548  20.1704471   9.8975207  30.1096585  23.2911144
  10.4676564  30.5383853  22.6528628  10.4883319  29.8279169  23.9895329
  11.9420012  26.6848255  17.1620946  12.6444055  27.1369299  17.6294872
  11.6100641  26.0432074  17.7900839  10.3900374  25.2760012  31.5372155
   9.7599034  25.9576293  31.7707552  10.2836461  25.1643094  30.5925293
   5.6845346  24.9431808  22.4638079   4.8944400  25.1989337  21.9878190
   6.1756593  25.7580146  22.5690120   7.6360091  25.3076387  19.4221556
   6.8391255  25.4195082  19.9405052   7.4085684  25.6463040  18.5562446
  13.4665759  31.8321091  27.3704071  13.5310192  32.2941498  28.2062242
  12.7576683  31.2018456  27.4986380   3.9683049  25.1962299  24.8953070
   4.2191087  26.0809309  25.1610646   4.5042597  25.0166900  24.1228162
  13.1813777  33.4989198  17.2383051  13.0459451  34.3440734  17.6667899
  13.7223589  33.7008476  16.4748985   9.6681116  19.5780778  33.8997406
   9.2748062  19.0246977  34.5745050  10.4847257  19.8891356  34.2903924
   6.6343174  31.0164636  17.8110976   7.1467695  31.8107886  17.9616541
   7.2865887  30.3190927  17.7444577   8.4438059  34.1330392  19.8933729
   8.6204687  35.0548357  19.7054713   9.2394892  33.8188812  20.3228109
  12.5849077  20.9938657  31.4917663  13.3258791  21.5945810  31.4122125
  12.8167000  20.2516295  30.9335705   7.7290415  26.1795024  29.7695892
   7.6143930  25.2780282  30.0702991   6.8734933  26.4258721  29.4180709
  14.8082253  34.1212765  31.3683393  14.3646107  33.3349143  31.0504297
  15.4699467  34.3091915  30.7027284   9.5669374  35.6508566  25.8944071
  10.1176799  35.5225630  25.1221065   8.7280850  35.9503455  25.5438964
  13.3636545  31.9159694  30.2388303  13.8964882  31.1547982  30.0087611
  12.8350626  31.6233346  30.9812457  16.5306240  17.0219760  25.7681944
  16.1870510  17.9121402  25.6921055  16.8985203  16.8321418  24.9051529
   4.5992091  29.3453290  18.5870546   5.4367313  29.7550299  18.3704254
   4.7770359  28.4052733  18.5570740  16.4956523  27.0128371  14.2754379
  15.9803146  27.7832976  14.5142767  16.2233831  26.3393507  14.8987441
  14.0803634  21.8578072  19.3339618  13.2245230  21.4684922  19.1545257
  14.4930586  21.9370033  18.4739403  15.6102781  19.3924415  23.7331178
  15.1067576  19.3554550  22.9198983  15.9033387  20.3017158  23.7927834
  11.8545667  19.4763145  22.7397359  12.7198663  19.2805954  22.3803249
  11.9223175  19.2473497  23.6666716  21.4690797  29.7660726  16.2107553
  20.6920240  29.4271885  15.7662715  22.1482278  29.7713349  15.5362518
  16.2842826  24.8855463  16.1014161  15.9792962  25.2001612  16.9524304
  17.2373268  24.9636883  16.1441494  14.7289258  31.0445687  17.7507115
  14.2010620  30.3098446  17.4380352  14.2276761  31.8220363  17.5047083
   9.4607986  21.7065353  20.1113726  10.0351737  21.4840534  19.3786919
  10.0478968  21.7754047  20.8642327  18.5187563  27.5939080  20.9178103
  19.0319445  28.2269072  21.4199812  19.1688787  26.9940275  20.5521463
   9.7877573  23.7369814  14.1309611   8.9514885  24.0744500  14.4518886
   9.6482342  23.6018794  13.1936748  11.7630653  18.5806602  18.8388796
  11.1095066  18.2655619  18.2145410  11.7211127  17.9582342  19.5648618
  12.8741858  28.8625897  10.7542088  11.9668920  28.6315150  10.9533237
  13.3712890  28.0663516  10.9416069  15.7809937  37.5723404  13.6738774
  15.1071636  37.8755101  14.2823732  16.1675759  38.3752484  13.3244231
  14.9968394  25.0688535  23.1636443  14.0790955  25.2903482  23.0058131
  15.4128537  25.1434846  22.3048151  15.7803441  26.4679951  18.2939123
  16.5275260  26.9801348  17.9846245  16.0495031  26.1464004  19.1543517
  14.0530092  28.9638492  15.2766078  13.1441311  28.6797524  15.3738547
  14.0825175  29.3837570  14.4169385  18.2282279  23.5037067  20.2757913
  17.4905035  22.9914453  20.6068155  18.4809052  23.0637449  19.4641190
  18.3293906  16.2813319  20.8699682  18.6352783  15.4210683  20.5825597
  19.0546511  16.8730939  20.6698676   4.6218262  26.6844006  19.2581280
   4.4242662  26.0913366  18.5332346   4.0664926  26.3796216  19.9757219
  12.6014986  26.5767112  21.3775873  12.6563595  25.6240949  21.3018350
  11.7906188  26.7326551  21.8617171  13.7506179  30.5047235  12.6154156
  13.3125609  29.7883094  12.1559794  14.4916620  30.7323350  12.0539248
  10.5407346  25.1944172  19.1366252   9.7275211  25.4938343  19.5431444
  11.0366340  24.7999861  19.8540734  12.6915923  35.1901929  21.0700517
  12.6492102  35.4162775  20.1409049  13.6078622  34.9565304  21.2186318
  16.1381557  25.6585996  27.9681146  16.4930945  25.8857470  28.8275612
  16.7853688  25.9904373  27.3458401  10.0321420  22.7662528  24.7527487
  10.6720800  22.6251287  24.0550450   9.1998951  22.4797041  24.3766089
  10.8081724  32.0664958  20.8662479  11.6022323  31.5715278  20.6645054
  10.0973417  31.5382821  20.5030185   7.1164488  26.2108040  16.9422232
   6.1862076  26.1492495  17.1592194   7.2121960  25.6883992  16.1458873
   7.0350037  22.7362853  19.5300474   7.2956854  23.6508186  19.4209634
   7.8567209  22.2687295  19.6797087   8.5074962  24.1500610  26.6999298
   9.1798015  23.9417972  26.0511947   7.6804749  23.9522696  26.2604531
  14.4100534  20.7762551  28.7164959  13.7628449  21.4752500  28.6229436
  15.1801549  21.2098695  29.0841207  14.5864668  28.6143316  26.7761779
  15.5156728  28.7654475  26.6030746  14.1655698  28.7027336  25.9210425
  13.3853000  32.6393980  24.5460316  13.2464086  32.2712764  25.4186255
  12.5967596  33.1541619  24.3744274  13.9801152  37.7403076  15.8885853
  14.1552908  37.2691120  16.7031476  13.2933940  38.3668843  16.1167114
  14.9358215  32.0175583  21.9349154  14.6008048  31.9776353  22.8306804
  14.4362161  31.3520299  21.4619564   8.9102459  27.4243213  27.4601735
   8.7722257  26.6923451  28.0613274   9.8207383  27.3352113  27.1785923
  17.8717407  29.3631617  12.2086214  17.2546578  28.6378445  12.1119267
  17.4033895  30.1240977  11.8653288  11.5384760  27.1363172  26.9485415
  12.2484379  26.4956364  26.9072033  11.4954068  27.3876067  27.8711596
  10.2513694  24.1228390  28.7681055   9.7151051  23.6719128  29.4202651
   9.6630402  24.2574299  28.0251519   8.5462237  40.8892439  22.6625713
   8.7858836  41.5210963  23.3404732   7.7031434  40.5380479  22.9491072
   9.6615953  23.5817041  11.3307518   8.7845419  23.4605842  10.9669765
  10.1373706  22.7903120  11.0786407   1.1818093  28.3694201  21.4249025
   1.8689133  28.0555931  20.8370041   1.0266222  29.2735566  21.1516277
   5.9852815  23.2584398  25.8534049   5.9011004  22.6510067  25.1184459
   5.1635522  23.7493416  25.8543545  13.0590099  36.6971562  25.0667217
  12.9860271  37.5026533  25.5786522  12.6167492  36.8963527  24.2415239
  12.8479879  35.9343332  18.5770039  12.0647401  36.4765012  18.6708263
  13.5472624  36.4517311  18.9764280  16.1576529  21.7437961  21.2204244
  16.6545229  20.9907923  20.9005314  15.3863511  21.7802278  20.6547453
  15.5188783  36.5958396  27.2225376  16.2316755  37.2305860  27.1501277
  15.0278811  36.6922262  26.4065378  17.2406310  30.5009648  18.7942667
  16.3062588  30.6211111  18.6247372  17.4182978  29.5982115  18.5302677
  12.7411498  23.8855344  20.9475929  12.3709285  23.3326384  21.6356834
  13.2370590  23.2813478  20.3950929  20.6278861  26.3426968  19.3292702
  21.0939313  27.1754959  19.2553004  21.0786362  25.8771949  20.0337960
  10.5700696  34.3452839  28.0430947  11.2710156  34.9789322  28.1960341
  10.0995811  34.6867571  27.2826586  18.6955092  32.6870789  16.3278854
  18.9714936  32.5727383  17.2372728  17.8259591  32.2888274  16.2891027
  18.5995524  18.7107555  23.3683603  17.6858604  18.9411781  23.5365810
  19.0288625  18.7945999  24.2197635  14.4189555  27.6417258  32.3549534
  13.7430192  27.5411387  33.0251909  15.2417189  27.4856471  32.8185531
   6.1668414  33.8789194  24.9762049   6.7521851  33.1332882  25.1089953
   5.9693253  34.1893151  25.8598713   9.0207070  36.9140442  19.9924492
   8.3517445  37.3986569  19.5088532   8.8819939  37.1609662  20.9067870
  13.1612338  38.9484185  26.5907150  13.7130646  39.1115807  27.3556235
  13.5018532  39.5388623  25.9187175   8.1376831  21.2959335  27.1929035
   8.2018158  22.1574166  26.7806432   8.0743952  20.6833337  26.4601393
   7.6129104  23.3682467  30.8402069   8.2401143  22.9859545  31.4539593
   6.7557023  23.1496669  31.2057761   4.3894647  25.1758897  16.7720424
   4.6848088  24.2669575  16.7187478   3.4882683  25.1546636  16.4501426
   7.9188894  23.2514893  22.7547972   7.1975480  23.8650861  22.6155446
   8.7082150  23.7872658  22.6764618  10.7215207  20.5869320  29.0288624
  11.2449609  20.8331616  29.7914933  10.5027541  21.4189354  28.6091762
   6.1182488  22.8572994  16.8959749   5.7895194  21.9770373  16.7134855
   6.4721859  22.8020663  17.7836138  15.3662067  34.4927897  21.4054735
  15.2187030  33.5644604  21.5862305  16.1915561  34.5147988  20.9211810
   9.2324312  23.1445964  17.2635227   9.5720384  23.6731885  16.5413835
   9.6796432  23.4826370  18.0393793  11.9267752  21.5283015  26.7138295
  11.5864573  20.7290828  27.1158975  11.2206759  21.8284726  26.1415128
  12.5784224  18.6132327  25.1665618  13.4010293  18.1392805  25.0444508
  12.8222288  19.3922811  25.6664304  11.2192459  21.6420586  15.4628519
  11.9400821  22.0201838  14.9592236  10.5957763  22.3609462  15.5663497
  15.3623582  22.3465735  16.3986852  15.5787196  23.2290372  16.0975680
  14.8817649  21.9551948  15.6692494  10.1022803  25.3051448  22.9757596
   9.9567384  25.6191751  23.8681878   9.6248007  25.9236348  22.4228495
  11.9619186  22.2953996  23.0238486  11.9480755  21.3995089  22.6870784
  12.6791614  22.3024659  23.6576772  13.8145317  22.7291336  25.0691613
  13.5563094  23.6508407  25.0675944  13.2830357  22.3321770  25.7592077
   4.5768465  27.8456792  25.9145258   4.0321933  28.6216600  26.0465532
   5.4547815  28.1927597  25.7564379  11.3656082  21.1768376  18.2926056
  11.4871993  20.2485022  18.4916944  11.0758124  21.1907062  17.3804371
  14.2347272  18.8623286  21.4292776  14.2568969  18.9262620  20.4744755
  14.6515331  18.0227795  21.6233282  19.7466678  35.1508887  14.9478597
  20.4417582  35.7715580  15.1665912  20.0889828  34.3004239  15.2230975
   5.3634487  26.9726688  28.8075414   4.6216223  27.1209324  29.3940045
   5.0427231  27.2334954  27.9442164  13.3078150  36.5142667  28.6055804
  13.6165276  36.2691813  29.4778504  14.1053632  36.7189305  28.1174675
  13.3298762  38.6680576  20.8361181  12.8903752  38.1756955  21.5294038
  14.0806879  38.1253544  20.5953256   5.8091101  34.8592117  20.8385809
   6.6349121  34.5595889  20.4584453   5.4585153  34.0899740  21.2875598
  10.7772634  34.2118585  22.9083483  10.1552643  33.5489290  22.6085710
  11.4477501  34.2379717  22.2257130   4.0099706  32.7778444  21.7974743
   3.1731614  32.3500618  21.6158744   3.9823351  32.9710887  22.7345534
  10.8497161  22.6900373  32.5015989  10.8985317  23.5662496  32.1193758
  11.3919675  22.1477766  31.9287632  10.3386141  32.7622509  16.3841943
  10.4874261  33.4457973  15.7308616  11.1452584  32.7427599  16.8991399
  18.7453644  26.0664891  30.4109161  19.6463507  25.9271356  30.1193159
  18.8201619  26.2319346  31.3507338  13.0796450  23.4431746  29.2562347
  12.2099759  23.7365312  28.9844936  13.3155930  24.0272191  29.9769611
   8.0938774  28.7887686  17.3903012   7.8484816  27.8850016  17.5883222
   8.2634688  28.7904837  16.4482490  15.7835484  19.6611363  26.7727768
  16.3017427  20.3972390  26.4474256  15.4290616  19.9675356  27.6074527
   7.3634421  24.5216044  14.8889174   6.6703666  24.5960399  14.2329209
   7.1186173  23.7576388  15.4110690  16.0348078  16.0811645  22.2928664
  16.3149831  15.4134834  22.9189091  16.8198685  16.2740741  21.7803328
  13.8381546  35.2570639  13.8553691  13.2655513  35.8760826  13.4024162
  14.4114340  35.8070001  14.3893613  17.9271316  21.5884862  26.2259640
  17.3321248  21.8689875  25.5306129  17.6421012  22.0778763  26.9976381
  19.6866823  34.8573660  11.9466220  19.6080454  34.5233523  12.8401978
  20.5076489  35.3495428  11.9457693  14.2228345  26.5931452  11.1969743
  15.1687449  26.4637660  11.2658161  13.8442590  25.8546114  11.6739171
  20.1950229  18.2587458  21.1596635  19.9975050  17.9502546  22.0439967
  20.8049935  18.9849097  21.2894565  14.1067037  30.6449198  32.6570400
  15.0270047  30.8227797  32.8510447  14.0716620  29.7005243  32.5050099
  12.4071262  24.5181428  11.1324628  11.5002717  24.2214541  11.2087342
  12.6847243  24.2211246  10.2658915   3.3249202  25.8387792  21.5823675
   3.0051987  24.9853100  21.2898049   2.7782630  26.0536370  22.3381642
   7.1029110  28.5550233  25.2993181   7.3215120  29.4867341  25.3181215
   7.5154884  28.1958207  26.0847985  14.0233328  19.0618318  17.2868870
  13.2134056  18.7165403  17.6624116  14.7117745  18.7525862  17.8756481
  15.9523876  18.1396365  18.9093166  16.5054914  18.5591818  19.5683189
  16.1893962  17.2132113  18.9516122  11.9756975  24.1283438  34.6895930
  11.8753702  25.0777795  34.6208021  11.7578517  23.8001677  33.8172000
   3.1937462  29.4590703  23.5516796   2.5000934  29.0444656  23.0386751
   3.9410453  29.5011240  22.9550215  19.3302683  20.2496890  18.4171831
  18.7501352  20.9081694  18.0349883  19.0638616  19.4274235  18.0059248
  17.7806249  19.6501948  20.6193151  18.2806028  19.7618482  19.8107470
  18.4241857  19.3463001  21.2593959  11.8388245  27.5580577  33.5060992
  11.3555327  28.3580937  33.7124881  11.9249184  27.5688522  32.5528436
   5.1074205  29.3908957  21.4282811   5.0844893  29.4896644  20.4764694
   5.4174841  30.2374108  21.7499977   7.7661583  31.4485112  25.5429426
   8.7204836  31.4169054  25.4759357   7.5674106  30.9875736  26.3579651
   8.3560965  30.0186228  28.1100223   9.1753854  30.5130307  28.1335061
   8.6297772  29.1018196  28.0817791  18.1127561  22.4096980  17.4728179
  17.2253416  22.6946631  17.2548374  18.5281550  22.2490744  16.6255456
  21.4642097  22.4343501  21.1882518  22.2402487  22.9239954  21.4607135
  20.7390231  22.8601556  21.6454388   6.1211811  36.9904731  22.5599623
   5.9866279  36.2305132  21.9937622   5.7043874  37.7145631  22.0928412
  17.2570774  32.1741655  11.5676199  17.9606625  32.3791658  12.1833854
  16.5333423  32.7418417  11.8325282  18.0868585  27.9251516  17.6878469
  18.0303786  28.3820068  16.8486101  18.6396927  27.1642201  17.5101312
  21.8973391  23.7141248  18.5128588  21.6410325  23.3137884  19.3436796
  21.2726259  24.4285042  18.3878728   9.2780937  37.8874049  22.7718066
   9.1613321  38.8319481  22.6696756   8.4573384  37.5847610  23.1603865
  19.1657472  32.6124184  13.6174659  20.0003076  32.1805383  13.4352134
  19.0041815  32.4406198  14.5451553  18.8203364  29.1156298  14.9830998
  18.7652168  28.9500569  14.0419442  18.1949419  29.8232330  15.1393188
   3.6095879  24.3524362  28.8092420   4.2554743  23.8423316  29.2979645
   3.4013030  25.0893044  29.3835846  16.1349271  31.4205209  34.3084561
  17.0040431  31.5945862  33.9471196  15.6556023  32.2399626  34.1860290
  12.1299489  18.6164407  14.5616316  12.1178159  19.5606246  14.7184587
  13.0222911  18.4334552  14.2675778  10.3035451  38.5402310  25.9873995
  11.2062698  38.5725921  26.3040489  10.0772822  37.6102761  26.0020330
  12.0589053  37.2933297  22.6484073  11.1084684  37.2935159  22.5348445
  12.3621540  36.5466032  22.1320108  15.9451609  15.2107183  18.8162253
  15.1784005  14.6565670  18.9618936  16.3562314  15.2829052  19.6776405
   7.9493370  21.4991979  32.9067435   8.8124832  21.1428784  33.1170759
   7.3758781  21.1605874  33.5942839  20.4618269  44.9356740  19.6388251
  19.8983134  44.8446677  18.8704539  20.3470664  44.1156644  20.1190744
  19.9673455  45.6916845  15.3489850  20.7404331  45.1445832  15.2102726
  20.3198854  46.5561094  15.5604312  22.3039733  41.8509511  12.9808300
  22.5565253  41.3291032  12.2191763  21.3664292  41.6875656  13.0834984
  22.0236021  43.7537617  15.1832675  21.9072279  43.0782520  15.8513760
  22.1338281  43.2669991  14.3664828  24.3667562  43.2147764  18.8879365
  24.0025770  42.6878385  19.5992286  25.2234678  42.8246233  18.7145850
  17.5769675  42.8001713  22.4187037  17.7062056  43.0536192  23.3326449
  16.8967126  43.3929421  22.0991692  16.5239100  40.2723726  22.4638079
  15.7338154  40.5281254  21.9878190  17.0150348  41.0872064  22.5690120
  18.4753846  40.6368305  19.4221556  17.6785009  40.7486999  19.9405052
  18.2479438  40.9754957  18.5562446  14.8076803  40.5254216  24.8953070
  15.0584842  41.4101226  25.1610646  15.3436352  40.3458818  24.1228162
  17.4736929  46.3456554  17.8110976  17.9861449  47.1399804  17.9616541
  18.1259641  45.6482844  17.7444577  15.4385845  44.6745208  18.5870546
  16.2761067  45.0842216  18.3704254  15.6164113  43.7344650  18.5570740
  20.6271327  39.0661732  14.1309611  19.7908639  39.4036418  14.4518886
  20.4876097  38.9310711  13.1936748  23.7135613  44.1917814  10.7542088
  22.8062674  43.9607068  10.9533237  24.2106645  43.3955434  10.9416069
  26.6203692  52.9015322  13.6738774  25.9465390  53.2047018  14.2823732
  27.0069513  53.7044402  13.3244231  15.4612016  42.0135923  19.2581280
  15.2636416  41.4205284  18.5332346  14.9058680  41.7088134  19.9757219
  24.5899934  45.8339153  12.6154156  24.1519364  45.1175012  12.1559794
  25.3310375  46.0615268  12.0539248  17.9558242  41.5399957  16.9422232
  17.0255830  41.4784413  17.1592194  18.0515714  41.0175910  16.1458873
  24.8194907  53.0694994  15.8885853  24.9946662  52.5983037  16.7031476
  24.1327695  53.6960760  16.1167114  28.7111161  44.6923535  12.2086214
  28.0940332  43.9670363  12.1119267  28.2427650  45.4532895  11.8653288
  19.3855992  56.2184357  22.6625713  19.6252590  56.8502881  23.3404732
  18.5425188  55.8672397  22.9491072  20.5009707  38.9108959  11.3307518
  19.6239174  38.7897760  10.9669765  20.9767460  38.1195037  11.0786407
  12.0211848  43.6986119  21.4249025  12.7082887  43.3847849  20.8370041
  11.8659976  44.6027483  21.1516277  11.5979824  41.7786712  23.6966492
  11.6363923  41.2450303  24.4903611  11.0920116  41.2521918  23.0777470
  15.2288401  40.5050814  16.7720424  15.5241842  39.5961493  16.7187478
  14.3276437  40.4838554  16.4501426  15.4162220  43.1748710  25.9145258
  14.8715688  43.9508518  26.0465532  16.2941569  43.5219514  25.7564379
  16.6484855  50.1884035  20.8385809  17.4742875  49.8887807  20.4584453
  16.2978907  49.4191657  21.2875598  14.8493460  48.1070361  21.7974743
  14.0125368  47.6792536  21.6158744  14.8217106  48.3002805  22.7345534
  21.1779895  48.0914426  16.3841943  21.3268016  48.7749891  15.7308616
  21.9846339  48.0719516  16.8991399  18.9332528  44.1179604  17.3903012
  18.6878570  43.2141934  17.5883222  19.1028443  44.1196754  16.4482490
  18.2028176  39.8507962  14.8889174  17.5097421  39.9252317  14.2329209
  17.9579928  39.0868305  15.4110690  24.6775301  50.5862557  13.8553691
  24.1049268  51.2052744  13.4024162  25.2508094  51.1361919  14.3893613
  25.0622099  41.9223370  11.1969743  26.0081204  41.7929578  11.2658161
  24.6836344  41.1838031  11.6739171  23.2465016  39.8473346  11.1324628
  22.3396472  39.5506459  11.2087342  23.5240997  39.5503164  10.2658915
  14.1642957  41.1679709  21.5823675  13.8445741  40.3145018  21.2898049
  13.6176385  41.3828288  22.3381642  22.0163801  36.7060281  11.2736608
  22.8782965  37.0315180  11.5332425  22.2014145  35.9191777  10.7609673
  14.0331217  44.7882621  23.5516796  13.3394688  44.3736574  23.0386751
  14.7804208  44.8303157  22.9550215  15.9467959  44.7200875  21.4282811
  15.9238647  44.8188562  20.4764694  16.2568596  45.5666025  21.7499977
  16.9605566  52.3196649  22.5599623  16.8260034  51.5597050  21.9937622
  16.5437628  53.0437549  22.0928412  28.0964529  47.5033573  11.5676199
  28.8000379  47.7083575  12.1833854  27.3727178  48.0710335  11.8325282
  38.6335501  58.4585753  23.7129836  39.2713911  58.3392500  23.0093176
  38.5156344  59.4066597  23.7717788  35.4425208  58.4113181  23.6491360
  35.1043719  58.2954246  22.7611895  36.3114976  58.0104346  23.6292366
  31.3012023  60.2648658  19.6388251  30.7376889  60.1738594  18.8704539
  31.1864418  59.4448562  20.1190744  35.9244991  59.5648033  29.6077566
  35.9133631  59.1700831  28.7358069  36.0865630  58.8314105  30.2011337
  28.8476455  61.7599849  22.4772472  29.6397747  61.4190674  22.0618771
  29.0873106  61.8694824  23.3974625  36.8811582  63.9319625  14.9502716
  36.2299562  64.5173706  14.5636730  37.6755945  64.4625820  15.0097754
  30.8067209  61.0208762  15.3489850  31.5798085  60.4737749  15.2102726
  31.1592608  61.8853012  15.5604312  32.6452252  62.3485145  28.5556750
  32.3542118  63.2530775  28.4403416  33.2809236  62.3901672  29.2700819
  33.5708459  59.7261993  25.1458109  34.1672031  59.5018016  24.4315072
  33.6283430  58.9846739  25.7483557  33.1433487  57.1801429  12.9808300
  33.3959008  56.6582950  12.2191763  32.2058046  57.0167574  13.0834984
  38.3586847  61.6210057  15.4871700  37.7232680  61.6944684  16.1992605
  38.0284254  62.2103656  14.8090780  43.5885197  56.1212440  21.6916022
  44.3210369  55.5511657  21.9253852  42.8324553  55.7334041  22.1322528
  32.8629776  59.0829534  15.1832675  32.7466034  58.4074438  15.8513760
  32.9732036  58.5961908  14.3664828  35.2061317  58.5439682  18.8879365
  34.8419524  58.0170303  19.5992286  36.0628433  58.1538151  18.7145850
  37.6042137  62.0346560  25.5506543  37.3042860  62.9371599  25.4422351
  37.2593196  61.7678743  26.4027696  31.0554618  58.4860357  21.5843248
  30.1305115  58.3536571  21.7920940  31.3039032  59.2654576  22.0813190
  34.8256025  56.0287239  14.8687380  34.7055650  56.4744290  15.7072860
  34.1308613  56.3772556  14.3100918  28.4163429  58.1293631  22.4187037
  28.5455811  58.3828109  23.3326449  27.7360881  58.7221339  22.0991692
  32.5862917  68.7990881  18.5177511  32.5086946  69.7498706  18.5965992
  31.9824560  68.4536753  19.1752437  40.5241091  56.5008712  15.6967714
  41.4358947  56.7336099  15.5215411  40.0150738  57.0845756  15.1342793
  33.3326519  58.7804199  30.7356845  34.0741203  59.3189243  30.4591669
  32.6263504  59.4070488  30.8928397  38.8081858  60.9233340  29.3329007
  39.2165214  60.4815750  28.5883639  38.0859120  60.3485967  29.5863199
  39.1310673  61.4834530  23.0881295  38.5019536  61.6480245  22.3857363
  38.7436335  61.8976140  23.8592259  43.0099905  62.4188968  20.4425659
  42.3250943  62.7987870  19.8922692  43.0943754  63.0284295  21.1757607
  40.2650837  60.0648927  27.0421003  40.4767732  60.7080687  26.3655384
  40.2180585  59.2311244  26.5742933  34.6838635  61.2208938  20.3531381
  35.1476981  61.4996641  19.5636003  34.4195433  60.3192383  20.1704471
  31.5762716  60.7680420  23.2911144  32.1464073  61.1967688  22.6528628
  32.1670828  60.4863005  23.9895329  33.6207521  57.3432091  17.1620946
  34.3231564  57.7953135  17.6294872  33.2888150  56.7015910  17.7900839
  41.3796665  62.9420883  25.2143360  42.2014108  62.5401070  24.9326042
  41.3759067  62.8389117  26.1659476  29.3147600  55.9660223  19.4221556
  28.5178764  56.0778917  19.9405052  29.0873193  56.3046875  18.5562446
  35.1453268  62.4904926  27.3704071  35.2097701  62.9525333  28.2062242
  34.4364192  61.8602291  27.4986380  49.4702658  59.2859631  21.5628332
  48.7166366  58.7167029  21.4072336  49.6050199  59.2522296  22.5098966
  34.8601286  64.1573033  17.2383051  34.7246960  65.0024569  17.6667899
  35.4011098  64.3592311  16.4748985  28.3130683  61.6748472  17.8110976
  28.8255204  62.4691722  17.9616541  28.9653396  60.9774762  17.7444577
  30.1225568  64.7914228  19.8933729  30.2992196  65.7132192  19.7054713
  30.9182401  64.4772647  20.3228109  29.4077924  56.8378860  29.7695892
  29.2931439  55.9364117  30.0702991  28.5522442  57.0842556  29.4180709
  36.4869762  64.7796600  31.3683393  36.0433616  63.9932979  31.0504297
  37.1486976  64.9675750  30.7027284  31.2456883  66.3092402  25.8944071
  31.7964308  66.1809465  25.1221065  30.4068359  66.6087291  25.5438964
  38.5851000  65.0599400  29.3964794  38.5669475  65.8808281  28.9045063
  39.5070920  64.9353475  29.6214935  35.0424054  62.5743529  30.2388303
  35.5752391  61.8131818  30.0087611  34.5138135  62.2817181  30.9812457
  26.2779600  60.0037126  18.5870546  27.1154822  60.4134134  18.3704254
  26.4557868  59.0636568  18.5570740  38.1744032  57.6712206  14.2754379
  37.6590655  58.4416811  14.5142767  37.9021340  56.9977343  14.8987441
  43.1478306  60.4244561  16.2107553  42.3707749  60.0855721  15.7662715
  43.8269787  60.4297184  15.5362518  37.9630335  55.5439299  16.1014161
  37.6580471  55.8585448  16.9524304  38.9160777  55.6220718  16.1441494
  36.4076767  61.7029522  17.7507115  35.8798129  60.9682281  17.4380352
  35.9064270  62.4804198  17.5047083  41.3869613  59.8978542  22.8674161
  40.7293287  60.5877804  22.9554290  42.1910012  60.2874974  23.2108147
  31.4665082  54.3953649  14.1309611  30.6302394  54.7328336  14.4518886
  31.3269851  54.2602629  13.1936748  34.5529367  59.5209732  10.7542088
  33.6456429  59.2898986  10.9533237  35.0500399  58.7247351  10.9416069
  37.4597446  68.2307239  13.6738774  36.7859145  68.5338936  14.2823732
  37.8463268  69.0336320  13.3244231  36.6755903  55.7272371  23.1636443
  35.7578464  55.9487318  23.0058131  37.0916046  55.8018681  22.3048151
  37.4590950  57.1263786  18.2939123  38.2062769  57.6385183  17.9846245
  37.7282540  56.8047839  19.1543517  35.7317601  59.6222327  15.2766078
  34.8228820  59.3381360  15.3738547  35.7612684  60.0421406  14.4169385
  40.9636868  63.2328917  19.0457245  40.5099195  62.3919826  19.1022436
  40.3330835  63.8690315  19.3832025  39.4069807  65.0705413  19.9807063
  39.6992782  65.6310470  19.2619429  39.9168428  65.3633974  20.7360223
  26.3005771  57.3427841  19.2581280  26.1030171  56.7497202  18.5332346
  25.7452435  57.0380051  19.9757219  34.2802495  57.2350948  21.3775873
  34.3351104  56.2824784  21.3018350  33.4693697  57.3910387  21.8617171
  35.4293688  61.1631071  12.6154156  34.9913118  60.4466930  12.1559794
  36.1704129  61.3907185  12.0539248  32.2194855  55.8528007  19.1366252
  31.4062720  56.1522178  19.5431444  32.7153849  55.4583696  19.8540734
  34.3703432  65.8485764  21.0700517  34.3279611  66.0746611  20.1409049
  35.2866131  65.6149139  21.2186318  43.5466803  59.4388268  18.6730475
  43.4084702  59.6289864  17.7451664  43.1903022  60.2007651  19.1298526
  43.5736183  61.5064795  23.6841746  44.0072689  61.4140084  24.5324800
  44.2867763  61.4822295  23.0461762  32.4869233  62.7248793  20.8662479
  33.2809832  62.2299113  20.6645054  31.7760926  62.1966656  20.5030185
  37.3064078  65.1066889  25.2174847  37.3601100  65.6757825  25.9852563
  36.4378859  65.2768774  24.8528884  28.7951997  56.8691875  16.9422232
  27.8649585  56.8076331  17.1592194  28.8909469  56.3467828  16.1458873
  44.4351732  61.5488495  26.2174632  44.6287622  62.4534306  26.4633907
  44.3352350  61.0895914  27.0513217  39.4966841  61.6995238  31.7915512
  39.3452347  61.4705790  30.8745596  39.4871520  62.6565840  31.8046857
  36.2652177  59.2727151  26.7761779  37.1944237  59.4238310  26.6030746
  35.8443207  59.3611172  25.9210425  35.0640509  63.2977815  24.5460316
  34.9251595  62.9296600  25.4186255  34.2755105  63.8125455  24.3744274
  35.6588661  68.3986912  15.8885853  35.8340417  67.9274955  16.7031476
  34.9721449  69.0252678  16.1167114  36.6145724  62.6759418  21.9349154
  36.2795557  62.6360188  22.8306804  36.1149670  62.0104134  21.4619564
  30.5889968  58.0827048  27.4601735  30.4509766  57.3507287  28.0613274
  31.4994892  57.9935948  27.1785923  39.5504916  60.0215452  12.2086214
  38.9334087  59.2962280  12.1119267  39.0821404  60.7824813  11.8653288
  41.2059048  64.7314361  29.8691994  41.1471594  64.0473581  29.2022577
  41.6078566  65.4733351  29.4172620  31.3403462  54.2400877  11.3307518
  30.4632928  54.1189677  10.9669765  31.8161215  53.4486955  11.0786407
  41.2076455  62.6953945  28.1005974  40.3203234  62.3579866  28.2232373
  41.7775006  61.9636976  28.3374739  22.8605602  59.0278036  21.4249025
  23.5476642  58.7139766  20.8370041  22.7053731  59.9319401  21.1516277
  34.7377608  67.3555397  25.0667217  34.6647780  68.1610368  25.5786522
  34.2955001  67.5547363  24.2415239  34.5267388  66.5927167  18.5770039
  33.7434910  67.1348847  18.6708263  35.2260133  67.1101147  18.9764280
  45.6893795  58.1062162  22.8622536  45.6783672  58.9886877  22.4916469
  44.8211175  57.7533713  22.6677073  37.1976292  67.2542231  27.2225376
  37.9104264  67.8889696  27.1501277  36.7066320  67.3506097  26.4065378
  38.9193819  61.1593484  18.7942667  37.9850097  61.2794946  18.6247372
  39.0970487  60.2565950  18.5302677  34.4199007  54.5439179  20.9475929
  34.0496794  53.9910220  21.6356834  34.9158099  53.9397313  20.3950929
  42.3066370  57.0010803  19.3292702  42.7726822  57.8338795  19.2553004
  42.7573871  56.5355785  20.0337960  32.2488205  65.0036674  28.0430947
  32.9497665  65.6373157  28.1960341  31.7783320  65.3451406  27.2826586
  40.3742601  63.3454624  16.3278854  40.6502445  63.2311219  17.2372728
  39.5047100  62.9472109  16.2891027  40.0489491  57.5581282  25.8683497
  39.3960942  57.8057189  25.2135950  40.4269871  56.7445420  25.5345974
  37.0096665  67.5940975  19.9711667  37.1919060  66.7762631  20.4339420
  37.8329651  67.8108667  19.5336557  37.3438831  66.5209160  17.2326716
  37.8726597  66.0101615  16.6196878  37.6067050  66.2051690  18.0972249
  36.0977064  58.3001093  32.3549534  35.4217701  58.1995222  33.0251909
  36.9204698  58.1440307  32.8185531  27.8455923  64.5373029  24.9762049
  28.4309360  63.7916717  25.1089953  27.6480762  64.8476986  25.8598713
  30.6994579  67.5724277  19.9924492  30.0304954  68.0570405  19.5088532
  30.5607448  67.8193497  20.9067870  34.8399847  69.6068020  26.5907150
  35.3918155  69.7699642  27.3556235  35.1806041  70.1972458  25.9187175
  39.6910722  64.4329278  32.4455804  40.2350626  65.0459236  31.9510759
  39.1097566  64.9908856  32.9622817  26.0682156  55.8342732  16.7720424
  26.3635597  54.9253410  16.7187478  25.1670192  55.8130471  16.4501426
  37.9768235  67.5549996  23.5770832  37.8519374  66.7539736  23.0681778
  38.6347326  68.0496189  23.0884802  40.0403143  65.3559016  25.2050382
  39.0933478  65.2364367  25.1328709  40.3885916  64.4681514  25.2876644
  37.0449576  65.1511732  21.4054735  36.8974539  64.2228440  21.5862305
  37.8703070  65.1731823  20.9211810  30.9111820  53.8029799  17.2635227
  31.2507893  54.3315721  16.5413835  31.3583941  54.1410205  18.0393793
  40.6483698  65.9740291  22.4919607  41.5730246  65.7683152  22.3544058
  40.4799001  65.7256692  23.4008949  31.7810312  55.9635283  22.9757596
  31.6354893  56.2775586  23.8681878  31.3035516  56.5820183  22.4228495
  40.4379014  66.4925958  17.8481699  40.6115892  65.9272381  17.0955551
  40.9307905  67.2926853  17.6661189  26.2555974  58.5040627  25.9145258
  25.7109442  59.2800435  26.0465532  27.1335324  58.8511432  25.7564379
  46.2918405  59.2562381  19.4671998  46.7349551  58.5069707  19.0691122
  45.4144916  59.2472518  19.0845730  41.4254187  65.8092723  14.9478597
  42.1205091  66.4299415  15.1665912  41.7677337  64.9588074  15.2230975
  27.0421996  57.6310524  28.8075414  26.3003732  57.7793159  29.3940045
  26.7214740  57.8918789  27.9442164  43.3245610  63.2592428  16.4765928
  43.8496934  63.5979701  15.7515248  43.2367962  62.3239444  16.2929062
  34.9865659  67.1726502  28.6055804  35.2952785  66.9275649  29.4778504
  35.7841141  67.3773140  28.1174675  35.0086271  69.3264412  20.8361181
  34.5691261  68.8340790  21.5294038  35.7594388  68.7837379  20.5953256
  27.4878610  65.5175952  20.8385809  28.3136629  65.2179724  20.4584453
  27.1372662  64.7483575  21.2875598  32.4560143  64.8702421  22.9083483
  31.8340152  64.2073126  22.6085710  33.1265010  64.8963553  22.2257130
  25.6887215  63.4362279  21.7974743  24.8519123  63.0084453  21.6158744
  25.6610860  63.6294722  22.7345534  43.0139516  63.8925332  31.7817126
  42.2235060  63.8749471  31.2421625  42.7772870  64.4313626  32.5366162
  43.1337391  60.7417798  29.0949854  43.1835396  60.5767806  30.0365377
  43.0251314  59.8745057  28.7047735  32.0173650  63.4206344  16.3841943
  32.1661770  64.1041808  15.7308616  32.8240093  63.4011434  16.8991399
  40.4241153  56.7248726  30.4109161  41.3251016  56.5855191  30.1193159
  40.4989128  56.8903181  31.3507338  44.6355588  63.1614740  29.3391876
  44.3440396  63.5244720  30.1755337  44.0227719  62.4481748  29.1605208
  45.8351270  60.7267620  21.8594446  46.6698161  61.1657424  22.0232006
  45.9710399  60.2506273  21.0402692  42.8842776  58.2847355  27.8071934
  43.3596898  58.4775001  26.9990785  41.9608341  58.3406540  27.5615317
  29.7726283  59.4471522  17.3903012  29.5272325  58.5433852  17.5883222
  29.9422197  59.4488672  16.4482490  29.0421930  55.1799879  14.8889174
  28.3491175  55.2544234  14.2329209  28.7973682  54.4160223  15.4110690
  35.5169055  65.9154474  13.8553691  34.9443022  66.5344662  13.4024162
  36.0901849  66.4653836  14.3893613  38.7366315  66.1991625  14.9862273
  39.6696988  66.1337186  15.1895148  38.6489528  67.0347891  14.5276806
  44.0632523  58.3819234  25.1542539  44.0308843  57.4435235  25.3402223
  44.6733146  58.4603271  24.4208364  35.9015854  57.2515287  11.1969743
  36.8474958  57.1221495  11.2658161  35.5230099  56.5129949  11.6739171
  49.8809073  59.4435241  24.2948576  50.6112461  59.1820529  24.8556279
  49.2716018  58.7063963  24.3350644  47.9624370  57.5843104  24.8923027
  47.2357533  57.4499069  24.2839519  47.5471657  57.8919932  25.6979745
  35.7854546  61.3033033  32.6570400  36.7057556  61.4811632  32.8510447
  35.7504129  60.3589079  32.5050099  34.0858771  55.1765264  11.1324628
  33.1790226  54.8798376  11.2087342  34.3634752  54.8795082  10.2658915
  28.7816619  59.2134068  25.2993181  29.0002629  60.1451176  25.3181215
  29.1942393  58.8542042  26.0847985  24.8724971  60.1174539  23.5516796
  24.1788443  59.7028491  23.0386751  25.6197962  60.1595075  22.9550215
  41.0090192  50.9080725  18.4171831  40.4288861  51.5665529  18.0349883
  40.7426125  50.0858070  18.0059248  33.5175754  58.2164413  33.5060992
  33.0342836  59.0164773  33.7124881  33.6036693  58.2272358  32.5528436
  26.7861714  60.0492792  21.4282811  26.7632402  60.1480480  20.4764694
  27.0962350  60.8957943  21.7499977  29.4449092  62.1068947  25.5429426
  30.3992345  62.0752890  25.4759357  29.2461615  61.6459571  26.3579651
  30.0348474  60.6770063  28.1100223  30.8541363  61.1714142  28.1335061
  30.3085281  59.7602032  28.0817791  39.7915070  53.0680816  17.4728179
  38.9040925  53.3530466  17.2548374  40.2069059  52.9074579  16.6255456
  43.1429606  53.0927337  21.1882518  43.9189996  53.5823789  21.4607135
  42.4177740  53.5185391  21.6454388  45.5802165  53.8054956  22.2456459
  46.1746656  53.5650692  21.5349767  45.6528748  53.0862086  22.8729995
  27.7999320  67.6488567  22.5599623  27.6653788  66.8888968  21.9937622
  27.3831383  68.3729467  22.0928412  38.9358283  62.8325490  11.5676199
  39.6394134  63.0375493  12.1833854  38.2120932  63.4002252  11.8325282
  39.7656094  58.5835352  17.6878469  39.7091295  59.0403903  16.8486101
  40.3184436  57.8226036  17.5101312  43.5760900  54.3725084  18.5128588
  43.3197834  53.9721719  19.3436796  42.9513768  55.0868877  18.3878728
  47.8873237  57.1121157  21.0199880  47.3272795  57.1814346  21.7931442
  47.2816741  56.9362141  20.2999376  30.9568446  68.5457884  22.7718066
  30.8400830  69.4903316  22.6696756  30.1360893  68.2431445  23.1603865
  40.8444981  63.2708020  13.6174659  41.6790585  62.8389218  13.4352134
  40.6829324  63.0990033  14.5451553  40.4990873  59.7740133  14.9830998
  40.4439677  59.6084404  14.0419442  39.8736928  60.4816166  15.1393188
  37.8136780  62.0789045  34.3084561  38.6827940  62.2529697  33.9471196
  37.3343532  62.8983462  34.1860290  31.9822960  69.1986146  25.9873995
  32.8850207  69.2309756  26.3040489  31.7560330  68.2686597  26.0020330
  33.7376562  67.9517132  22.6484073  32.7872193  67.9518994  22.5348445
  34.0409049  67.2049867  22.1320108  49.4729256  73.7877671  23.7129836
  50.1107666  73.6684418  23.0093176  49.3550099  74.7358515  23.7717788
  46.2818962  73.7405099  23.6491360  45.9437474  73.6246163  22.7611895
  47.1508730  73.3396264  23.6292366  46.7638745  74.8939951  29.6077566
  46.7527386  74.4992749  28.7358069  46.9259385  74.1606023  30.2011337
  44.4102213  75.0553911  25.1458109  45.0065785  74.8309933  24.4315072
  44.4677185  74.3138656  25.7483557  49.0270524  71.5129125  20.7883044
  49.8133614  71.0948548  20.4373461  49.2909229  72.4175217  20.9564692
  54.4278952  71.4504358  21.6916022  55.1604123  70.8803575  21.9253852
  53.6718307  71.0625958  22.1322528  51.9504372  65.1625932  26.1510631
  51.6187697  66.0321343  25.9271846  51.3549985  64.8462216  26.8304661
  41.8948373  73.8152275  21.5843248  40.9698869  73.6828489  21.7920940
  42.1432786  74.5946494  22.0813190  51.8433035  69.8821018  23.2303981
  50.9349913  69.8136426  22.9362742  51.7920631  70.3592963  24.0585806
  45.9173901  71.3010664  31.1738878  45.1407235  71.8604584  31.1641743
  46.5564464  71.7867447  31.6953748  53.7094682  68.0837456  25.0081855
  53.0669062  68.3769990  24.3621649  53.2049610  67.9690377  25.8135051
  44.1720273  74.1096117  30.7356845  44.9134958  74.6481161  30.4591669
  43.4657259  74.7362406  30.8928397  46.0006683  71.1897864  26.7062563
  46.8467878  71.6137278  26.8497212  45.9405321  70.5331489  27.4001127
  49.1506128  68.8502233  28.3643737  48.9067060  69.6044293  27.8278013
  49.4266059  69.2287580  29.1990984  48.7070820  68.0058666  23.9457575
  47.8455299  68.3039919  24.2374312  48.7333255  68.2229064  23.0138607
  42.9081637  71.2635765  31.5372155  42.2780298  71.9452046  31.7707552
  42.8017725  71.1518847  30.5925293  38.2026609  70.9307561  22.4638079
  37.4125663  71.1865090  21.9878190  38.6937857  71.7455899  22.5690120
  40.1541355  71.2952140  19.4221556  39.3572518  71.4070835  19.9405052
  39.9266947  71.6338793  18.5562446  36.4864312  71.1838052  24.8953070
  36.7372351  72.0685062  25.1610646  37.0223861  71.0042653  24.1228162
  42.1862380  65.5656531  33.8997406  41.7929325  65.0122730  34.5745050
  43.0028520  65.8767109  34.2903924  45.1030341  66.9814410  31.4917663
  45.8440054  67.5821563  31.4122125  45.3348264  66.2392048  30.9335705
  40.2471679  72.1670777  29.7695892  40.1325194  71.2656035  30.0702991
  39.3916197  72.4134474  29.4180709  49.0487504  63.0095513  25.7681944
  48.7051773  63.8997155  25.6921055  49.4166466  62.8197171  24.9051529
  46.5984897  67.8453825  19.3339618  45.7426494  67.4560675  19.1545257
  47.0111849  67.9245786  18.4739403  48.1284044  65.3800168  23.7331178
  47.6248840  65.3430303  22.9198983  48.4214651  66.2892911  23.7927834
  44.3726930  65.4638898  22.7397359  45.2379927  65.2681707  22.3803249
  44.4404439  65.2349250  23.6666716  41.9789249  67.6941106  20.1113726
  42.5533001  67.4716287  19.3786919  42.5660231  67.7629800  20.8642327
  44.2811917  64.5682355  18.8388796  43.6276329  64.2531372  18.2145410
  44.2392391  63.9458095  19.5648618  47.5149657  71.0564288  23.1636443
  46.5972218  71.2779235  23.0058131  47.9309801  71.1310599  22.3048151
  50.7463542  69.4912820  20.2757913  50.0086299  68.9790206  20.6068155
  50.9990316  69.0513202  19.4641190  50.8475169  62.2689072  20.8699682
  51.1534046  61.4086436  20.5825597  51.5727774  62.8606692  20.6698676
  37.1399525  72.6719759  19.2581280  36.9423925  72.0789120  18.5332346
  36.5846189  72.3671969  19.9757219  45.1196249  72.5642865  21.3775873
  45.1744859  71.6116702  21.3018350  44.3087451  72.7202304  21.8617171
  43.0588609  71.1819925  19.1366252  42.2456475  71.4814096  19.5431444
  43.5547603  70.7875614  19.8540734  48.6562821  71.6461750  27.9681146
  49.0112208  71.8733223  28.8275612  49.3034952  71.9780126  27.3458401
  42.5502684  68.7538281  24.7527487  43.1902063  68.6127040  24.0550450
  41.7180214  68.4672794  24.3766089  39.6345751  72.1983793  16.9422232
  38.7043339  72.1368248  17.1592194  39.7303223  71.6759745  16.1458873
  39.5531300  68.7238606  19.5300474  39.8138118  69.6383939  19.4209634
  40.3748473  68.2563048  19.6797087  41.0256226  70.1376363  26.6999298
  41.6979279  69.9293725  26.0511947  40.1986012  69.9398449  26.2604531
  46.9281798  66.7638304  28.7164959  46.2809713  67.4628253  28.6229436
  47.6982813  67.1974448  29.0841207  47.1045932  74.6019069  26.7761779
  48.0337992  74.7530228  26.6030746  46.6836962  74.6903089  25.9210425
  41.4283723  73.4118966  27.4601735  41.2903521  72.6799205  28.0613274
  42.3388646  73.3227866  27.1785923  44.0566023  73.1238925  26.9485415
  44.7665642  72.4832117  26.9072033  44.0135332  73.3751820  27.8711596
  42.7694957  70.1104143  28.7681055  42.2332314  69.6594881  29.4202651
  42.1811666  70.2450052  28.0251519  38.5034079  69.2460151  25.8534049
  38.4192267  68.6385820  25.1184459  37.6816785  69.7369169  25.8543545
  48.6757793  67.7313714  21.2204244  49.1726492  66.9783676  20.9005314
  47.9044774  67.7678031  20.6547453  45.2592761  69.8731097  20.9475929
  44.8890549  69.3202137  21.6356834  45.7551854  69.2689231  20.3950929
  51.1176787  64.6983308  23.3683603  50.2039867  64.9287534  23.5365810
  51.5469889  64.7821752  24.2197635  50.8883246  72.8873200  25.8683497
  50.2354696  73.1349107  25.2135950  51.2663626  72.0737338  25.5345974
  46.9370819  73.6293011  32.3549534  46.2611456  73.5287140  33.0251909
  47.7598453  73.4732224  32.8185531  40.6558095  67.2835088  27.1929035
  40.7199421  68.1449919  26.7806432  40.5925215  66.6709090  26.4601393
  40.1310367  69.3558220  30.8402069  40.7582406  68.9735298  31.4539593
  39.2738286  69.1372422  31.2057761  36.9075910  71.1634650  16.7720424
  37.2029351  70.2545328  16.7187478  36.0063946  71.1422389  16.4501426
  40.4370157  69.2390646  22.7547972  39.7156743  69.8526614  22.6155446
  41.2263413  69.7748411  22.6764618  43.2396471  66.5745073  29.0288624
  43.7630873  66.8207369  29.7914933  43.0208804  67.4065107  28.6091762
  38.6363752  68.8448747  16.8959749  38.3076458  67.9646126  16.7134855
  38.9903123  68.7896416  17.7836138  41.7505575  69.1321717  17.2635227
  42.0901647  69.6607638  16.5413835  42.1977695  69.4702123  18.0393793
  44.4449016  67.5158768  26.7138295  44.1045836  66.7166581  27.1158975
  43.7388022  67.8160479  26.1415128  45.0965488  64.6008080  25.1665618
  45.9191557  64.1268558  25.0444508  45.3403551  65.3798564  25.6664304
  43.7373722  67.6296339  15.4628519  44.4582085  68.0077591  14.9592236
  43.1139026  68.3485215  15.5663497  42.6204066  71.2927201  22.9757596
  42.4748647  71.6067504  23.8681878  42.1429270  71.9112101  22.4228495
  44.4800449  68.2829749  23.0238486  44.4662018  67.3870842  22.6870784
  45.1972877  68.2900413  23.6576772  46.3326580  68.7167089  25.0691613
  46.0744358  69.6384160  25.0675944  45.8011620  68.3197524  25.7592077
  43.8837345  67.1644129  18.2926056  44.0053256  66.2360775  18.4916944
  43.5939388  67.1782815  17.3804371  46.7528536  64.8499039  21.4292776
  46.7750232  64.9138373  20.4744755  47.1696595  64.0103548  21.6233282
  37.8815750  72.9602441  28.8075414  37.1397486  73.1085077  29.3940045
  37.5608495  73.2210707  27.9442164  43.3678425  68.6776126  32.5015989
  43.4166580  69.5538249  32.1193758  43.9100939  68.1353519  31.9287632
  51.2634908  72.0540644  30.4109161  52.1644771  71.9147109  30.1193159
  51.3382882  72.2195099  31.3507338  45.5977713  69.4307499  29.2562347
  44.7281023  69.7241065  28.9844936  45.8337194  70.0147944  29.9769611
  48.3016747  65.6487116  26.7727768  48.8198691  66.3848143  26.4474256
  47.9471880  65.9551109  27.6074527  39.8815685  70.5091797  14.8889174
  39.1884930  70.5836152  14.2329209  39.6367437  69.7452141  15.4110690
  48.5529341  62.0687398  22.2928664  48.8331095  61.4010587  22.9189091
  49.3379948  62.2616494  21.7803328  52.4238200  70.4905032  26.0400239
  53.3755622  70.5903130  26.0612463  52.2541650  69.6983301  26.5498324
  50.4452579  67.5760615  26.2259640  49.8502511  67.8565628  25.5306129
  50.1602276  68.0654516  26.9976381  55.0520766  70.5022195  25.2000822
  54.5359814  69.7180652  25.0130751  55.9360714  70.1740912  25.3647342
  52.7131493  64.2463211  21.1596635  52.5156314  63.9378299  22.0439967
  53.3231198  64.9724850  21.2894565  46.6248301  76.6324951  32.6570400
  47.5451310  76.8103550  32.8510447  46.5897884  75.6880996  32.5050099
  35.8430466  71.8263545  21.5823675  35.5233250  70.9728853  21.2898049
  35.2963894  72.0412123  22.3381642  46.5414591  65.0494071  17.2868870
  45.7315319  64.7041156  17.6624116  47.2299008  64.7401615  17.8756481
  48.4705139  64.1272118  18.9093166  49.0236178  64.5467571  19.5683189
  48.7075226  63.2007866  18.9516122  44.4938239  70.1159191  34.6895930
  44.3934965  71.0653548  34.6208021  44.2759781  69.7877430  33.8172000
  51.8483946  66.2372643  18.4171831  51.2682615  66.8957447  18.0349883
  51.5819879  65.4149988  18.0059248  50.2987513  65.6377701  20.6193151
  50.7987291  65.7494235  19.8107470  50.9423121  65.3338754  21.2593959
  44.3569509  73.5456330  33.5060992  43.8736590  74.3456690  33.7124881
  44.4430448  73.5564275  32.5528436  53.9823361  68.4219254  21.1882518
  54.7583751  68.9115707  21.4607135  53.2571495  68.8477309  21.6454388
  56.4195919  69.1346874  22.2456459  57.0140410  68.8942610  21.5349767
  56.4922503  68.4154004  22.8729995  36.1277142  70.3400115  28.8092420
  36.7736006  69.8299069  29.2979645  35.9194294  71.0768797  29.3835846
  44.6480753  64.6040160  14.5616316  44.6359423  65.5481999  14.7184587
  45.5404175  64.4210305  14.2675778  48.4632872  61.1982936  18.8162253
  47.6965268  60.6441423  18.9618936  48.8743577  61.2704805  19.6776405
  40.4674633  67.4867732  32.9067435  41.3306095  67.1304537  33.1170759
  39.8940044  67.1481627  33.5942839  14.8082254  11.1274887  18.0928700
  14.3646108  10.3411266  17.7749604  15.4699468  11.3154038  17.4272590
  16.9063492  11.4077687  16.1210101  16.8881968  12.2286568  15.6290370
  17.8283412  11.2831762  16.3460242  17.8179333   8.0473525  18.5160819
  17.6664840   7.8184077  17.5990903  17.8084013   9.0044127  18.5292164
  19.5271540  11.0792648  16.5937301  19.4684086  10.3951868  15.9267884
  19.9291058  11.8211638  16.1417927  14.4189557   4.6479380  19.0794841
  13.7430194   4.5473510  19.7497216  15.2417191   4.4918594  19.5430838
  13.1612340  15.9546308  13.3152457  13.7130648  16.1177929  14.0801542
  13.5018533  16.5450745  12.6432482  18.0123214  10.7807565  19.1701111
  18.5563118  11.3937523  18.6756066  17.4310059  11.3387144  19.6868124
  13.3078151  13.5204789  15.3301111  13.6165277  13.2753936  16.2023811
  14.1053633  13.7251428  14.8419981  21.3352008  10.2403619  18.5062432
  20.5447552  10.2227758  17.9666932  21.0985363  10.7791913  19.2611469
  21.4549883   7.0896086  15.8195161  21.5047888   6.9246093  16.7610684
  21.3463807   6.2223345  15.4293042  22.9568080   9.5093027  16.0637182
  22.6652888   9.8723008  16.9000643  22.3440211   8.7960035  15.8850514
  14.1067038   7.6511321  19.3815707  15.0270048   7.8289920  19.5755753
  14.0716622   6.7067366  19.2295406  16.1349272   8.4267332  21.0329868
  17.0040432   8.6007984  20.6716502  15.6556024   9.2461749  20.9105597
  27.7941748  20.1355958  10.4375142  28.4320158  20.0162705   9.7338482
  27.6762591  21.0836802  10.4963094  24.6031454  20.0883386  10.3736667
  24.2649966  19.9724451   9.4857202  25.4721223  19.6874551  10.3537673
  25.0851237  21.2418238  16.3322872  25.0739878  20.8471036  15.4603376
  25.2471877  20.5084310  16.9256644  18.0082702  23.4370054   9.2017778
  18.8003994  23.0960879   8.7864078  18.2479352  23.5465029  10.1219932
  21.8058499  24.0255350  15.2802056  21.5148365  24.9300980  15.1648723
  22.4415483  24.0671877  15.9946126  22.7314705  21.4032198  11.8703416
  23.3278278  21.1788220  11.1560379  22.7889677  20.6616944  12.4728864
  27.3483017  17.8607412   7.5128350  28.1346106  17.4426835   7.1618767
  27.6121721  18.7653504   7.6809999  32.7491444  17.7982645   8.4161329
  33.4816616  17.2281862   8.6499158  31.9930800  17.4104245   8.8567834
  30.2716864  11.5104219  12.8755937  29.9400189  12.3799630  12.6517152
  29.6762478  11.1940503  13.5549968  26.7648384  23.7116765  12.2751850
  26.4649107  24.6141804  12.1667657  26.4199443  23.4448948  13.1273003
  20.2160865  20.1630562   8.3088554  19.2911362  20.0306776   8.5166246
  20.4645278  20.9424781   8.8058497  30.1645527  16.2299305   9.9549287
  29.2562405  16.1614714   9.6608048  30.1133123  16.7071250  10.7831113
  21.7469164  30.4761085   5.2422818  21.6693193  31.4268911   5.3211298
  21.1430807  30.1306958   5.8997744  24.2386393  17.6488951  17.8984185
  23.4619727  18.2082871  17.8887049  24.8776956  18.1345734  18.4199055
  32.0307174  14.4315744  11.7327161  31.3881554  14.7248277  11.0866956
  31.5262102  14.3168664  12.5380358  22.4932766  20.4574404  17.4602152
  23.2347450  20.9959448  17.1836975  21.7869751  21.0840693  17.6173703
  27.9688105  22.6003545  16.0574313  28.3771461  22.1585955  15.3128946
  27.2465367  22.0256172  16.3108506  24.3219175  17.5376151  13.4307870
  25.1680370  17.9615565  13.5742519  24.2617813  16.8809776  14.1246433
  28.2916920  23.1604735   9.8126602  27.6625782  23.3250449   9.1102670
  27.9042582  23.5746345  10.5837566  32.1706152  24.0959173   7.1670966
  31.4857190  24.4758075   6.6167999  32.2550001  24.7054500   7.9002914
  27.4718621  15.1980520  15.0889044  27.2279552  15.9522580  14.5523319
  27.7478551  15.5765867  15.9236291  29.4257083  21.7419132  13.7666309
  29.6373979  22.3850892  13.0900690  29.3786832  20.9081449  13.2988239
  27.0283312  14.3536953  10.6702881  26.1667791  14.6518206  10.9619619
  27.0545747  14.5707352   9.7383914  23.8444882  22.8979143   7.0776687
  24.3083227  23.1766846   6.2881310  23.5801680  21.9962588   6.8949778
  20.7368963  22.4450625  10.0156450  21.3070320  22.8737893   9.3773935
  21.3277075  22.1633210  10.7140636  21.2294129  17.6114052  18.2617462
  20.5992790  18.2930333  18.4952858  21.1230217  17.4997134  17.3170600
  30.5402911  24.6191088  11.9388667  31.3620355  24.2171275  11.6571348
  30.5365314  24.5159322  12.8904782  24.3059515  24.1675131  14.0949377
  24.3703947  24.6295538  14.9307549  23.5970439  23.5372496  14.2231687
  38.6308904  20.9629836   8.2873638  37.8772613  20.3937234   8.1317643
  38.7656446  20.9292501   9.2344273  24.0207532  25.8343238   3.9628357
  23.8853207  26.6794774   4.3913205  24.5617345  26.0362516   3.1994291
  20.5074872  11.9134818  20.6242713  20.1141818  11.3601017  21.2990357
  21.3241012  12.2245397  21.0149230  19.2831815  26.4684433   6.6179036
  19.4598443  27.3902397   6.4300020  20.0788648  26.1542852   7.0473416
  23.4242833  13.3292697  18.2162969  24.1652546  13.9299850  18.1367432
  23.6560756  12.5870335  17.6581012  18.5684171  18.5149065  16.4941199
  18.4537686  17.6134322  16.7948298  17.7128689  18.7612761  16.1426015
  20.4063130  27.9862606  12.6189378  20.9570555  27.8579670  11.8466372
  19.5674606  28.2857496  12.2684271  24.2030301  24.2513734  16.9633609
  24.7358638  23.4902022  16.7332917  23.6744382  23.9587386  17.7057764
  27.3699996   9.3573800  12.4927251  27.0264265  10.2475442  12.4166362
  27.7378959   9.1675458  11.6296836  32.3084553  22.1014766   2.9352860
  31.5313996  21.7625926   2.4908022  32.9876034  22.1067389   2.2607825
  30.5475860  21.5748747   9.5919468  29.8899534  22.2648009   9.6799596
  31.3516259  21.9645179   9.9353454  29.3581319  19.9293120   7.6423409
  29.8713200  20.5623112   8.1445119  30.0082542  19.3294315   7.2766769
  26.6203693  29.9077444   0.3984080  25.9465392  30.2109141   1.0069038
  27.0069515  30.7106525   0.0489537  25.8362149  17.4042576   9.8881750
  24.9184711  17.6257523   9.7303438  26.2522293  17.4788886   9.0293457
  30.1243115  24.9099121   5.7702552  29.6705442  24.0690031   5.8267742
  29.4937081  25.5460520   6.1077332  28.5676054  26.7475618   6.7052370
  28.8599028  27.3080675   5.9864736  29.0774675  27.0404179   7.4605529
  23.4408741  18.9121153   8.1021180  23.4957351  17.9594989   8.0263656
  22.6299943  19.0680592   8.5862478  23.5309679  27.5255969   7.7945823
  23.4885858  27.7516816   6.8654355  24.4472378  27.2919344   7.9431624
  26.9775313  17.9940037  14.6926452  27.3324701  18.2211510  15.5520918
  27.6247444  18.3258414  14.0703708  32.7073050  21.1158473   5.3975781
  32.5690949  21.3060069   4.4696971  32.3509269  21.8777855   5.8543833
  20.8715176  15.1016568  11.4772794  21.5114555  14.9605327  10.7795757
  20.0392707  14.8151081  11.1011396  32.7342430  23.1835000  10.4087053
  33.1678936  23.0910289  11.2570107  33.4474010  23.1592500   9.7707069
  21.6475480  24.4018998   7.5907786  22.4416078  23.9069318   7.3890361
  20.9367172  23.8736861   7.2275492  26.4670324  26.7837094  11.9420154
  26.5207347  27.3528030  12.7097869  25.5985106  26.9538979  11.5774191
  19.3468718  16.4854650  13.4244605  20.0191771  16.2772012  12.7757254
  18.5198504  16.2876736  12.9849837  33.5957979  23.2258700  12.9419938
  33.7893869  24.1304511  13.1879213  33.4958597  22.7666119  13.7758523
  25.2494290  13.1116591  15.4410266  24.6022205  13.8106541  15.3474742
  26.0195305  13.5452735  15.8086514  28.6573088  23.3765443  18.5160819
  28.5058594  23.1475995  17.5990903  28.6477767  24.3336044  18.5292164
  25.4258424  20.9497356  13.5007085  26.3550484  21.1008515  13.3276053
  25.0049454  21.0381377  12.6455732  24.2246756  24.9748020  11.2705623
  24.0857842  24.6066805  12.1431561  23.4361352  25.4895660  11.0989581
  24.8194908  30.0757117   2.6131160  24.9946664  29.6045160   3.4276782
  24.1327696  30.7022883   2.8412420  25.7751971  24.3529623   8.6594461
  25.4401804  24.3130393   9.5552111  25.2755917  23.6874339   8.1864871
  19.7496215  19.7597253  14.1847042  19.6116013  19.0277492  14.7858581
  20.6601139  19.6706153  13.9031230  22.3778516  19.4717212  13.6730722
  23.0878134  18.8310404  13.6317340  22.3347824  19.7230107  14.5956902
  21.0907450  16.4582430  15.4926361  20.5544807  16.0073169  16.1447957
  20.5024158  16.5928339  14.7496825  19.3855993  33.2246479   9.3871020
  19.6252591  33.8565004  10.0650038  18.5425190  32.8734519   9.6736379
  30.3682702  24.3724150  14.8251281  29.4809480  24.0350071  14.9477679
  30.9381253  23.6407181  15.0620046  23.8983855  29.0325602  11.7912524
  23.8254027  29.8380573  12.3031828  23.4561248  29.2317568  10.9660545
  23.6873635  28.2697372   5.3015345  22.9041157  28.8119052   5.3953570
  24.3866380  28.7871352   5.7009586  34.8500042  19.7832367   9.5867842
  34.8389918  20.6657082   9.2161775  33.9817422  19.4303918   9.3922379
  26.3582539  28.9312436  13.9470682  27.0710511  29.5659901  13.8746584
  25.8672567  29.0276302  13.1310684  28.0800066  22.8363689   5.5187974
  27.1456344  22.9565151   5.3492678  28.2576734  21.9336155   5.2547984
  31.4672617  18.6781008   6.0538008  31.9333069  19.5108999   5.9798311
  31.9180117  18.2125989   6.7583267  21.4094452  26.6806879  14.7676253
  22.1103912  27.3143362  14.9205647  20.9389567  27.0221611  14.0071892
  29.5348848  25.0224829   3.0524160  29.8108692  24.9081424   3.9618034
  28.6653347  24.6242314   3.0136333  29.4389280  11.0461595  10.0928910
  28.5252359  11.2765822  10.2611116  29.8682381  11.1300039  10.9442942
  29.2095738  19.2351487  12.5928804  28.5567188  19.4827394  11.9381256
  29.5876118  18.4215625  12.2591281  26.1702912  29.2711180   6.6956974
  26.3525307  28.4532836   7.1584726  26.9935898  29.4878872   6.2581864
  26.5045077  28.1979365   3.9572022  27.0332844  27.6871820   3.3442184
  26.7673297  27.8821895   4.8217555  25.2583311  19.9771298  19.0794841
  24.5823948  19.8765427  19.7497216  26.0810945  19.8210512  19.5430838
  17.0062170  26.2143234  11.7007356  17.5915607  25.4686922  11.8335260
  16.8087009  26.5247191  12.5844020  19.8600825  29.2494482   6.7169798
  19.1911201  29.7340609   6.2333838  19.7213695  29.4963702   7.6313177
  24.0006094  31.2838225  13.3152457  24.5524402  31.4469847  14.0801542
  24.3412287  31.8742663  12.6432482  18.9770587  13.6313375  13.9174341
  19.0411914  14.4928206  13.5051739  18.9137707  13.0187377  13.1846700
  18.4522860  15.7036508  17.5647376  19.0794899  15.3213585  18.1784900
  17.5950779  15.4850710  17.9303068  27.1374481  29.2320201  10.3016139
  27.0125621  28.4309941   9.7927084  27.7953572  29.7266394   9.8130109
  29.2009390  27.0329221  11.9295689  28.2539725  26.9134572  11.8574016
  29.5492163  26.1451719  12.0121950  21.5608963  12.9223360  15.7533931
  22.0843365  13.1685656  16.5160240  21.3421296  13.7543395  15.3337068
  26.2055823  26.8281937   8.1300041  26.0580785  25.8998645   8.3107611
  27.0309316  26.8502028   7.6457116  29.8089945  27.6510496   9.2164914
  30.7336492  27.4453357   9.0789365  29.6405248  27.4026897  10.1254255
  22.7661508  13.8637055  13.4383601  22.4258328  13.0644868  13.8404281
  22.0600514  14.1638766  12.8660435  23.4177980  10.9486367  11.8910924
  24.2404049  10.4746846  11.7689815  23.6616043  11.7276851  12.3909611
  20.9416559  17.6405488   9.7002903  20.7961139  17.9545791  10.5927184
  20.4641762  18.2590388   9.1473802  24.6539072  15.0645376  11.7936920
  24.3956850  15.9862447  11.7921250  24.1224113  14.6675811  12.4837384
  29.5985261  28.1696163   4.5727005  29.7722139  27.6042586   3.8200858
  30.0914152  28.9697058   4.3906495  15.4162221  20.1810832  12.6390564
  14.8715689  20.9570640  12.7710838  16.2941571  20.5281637  12.4809686
  35.4524652  20.9332586   6.1917305  35.8955798  20.1839911   5.7936428
  34.5751162  20.9242723   5.8091037  30.5860434  27.4862928   1.6723904
  31.2811338  28.1069620   1.8911218  30.9283584  26.6358279   1.9476282
  16.2028243  19.3080729  15.5320721  15.4609979  19.4563364  16.1185351
  15.8820987  19.5688994  14.6687470  32.4851857  24.9362633   3.2011234
  33.0103181  25.2749906   2.4760554  32.3974209  24.0009649   3.0174369
  24.1471905  28.8496707  15.3301111  24.4559032  28.6045854  16.2023811
  24.9447387  29.0543345  14.8419981  24.1692517  31.0034617   7.5606488
  23.7297508  30.5110995   8.2539344  24.9200634  30.4607584   7.3198563
  16.6484856  27.1946157   7.5631116  17.4742876  26.8949929   7.1829759
  16.2978908  26.4253780   8.0120904  21.6166390  26.5472626   9.6328789
  20.9946399  25.8843331   9.3331017  22.2871256  26.5733758   8.9502437
  14.8493461  25.1132484   8.5220049  14.0125370  24.6854658   8.3404050
  14.8217107  25.3064927   9.4590840  21.6890917  15.0254414  19.2261295
  21.7379072  15.9016536  18.8439065  22.2313431  14.4831807  18.6532938
  29.5847400  18.4018931  17.1354468  30.4857263  18.2625396  16.8438465
  29.6595375  18.5673386  18.0752645  23.9190205  15.7785786  15.9807654
  23.0493515  16.0719352  15.7090242  24.1549686  16.3626231  16.7014918
  34.9957517  22.4037825   8.5839753  35.8304408  22.8427629   8.7477313
  35.1316646  21.9276478   7.7647998  32.0449023  19.9617559  14.5317240
  32.5203144  20.1545206  13.7236092  31.1214588  20.0176745  14.2860624
  26.6229239  11.9965403  13.4973074  27.1411183  12.7326430  13.1719563
  26.2684372  12.3029396  14.3319833  30.7450692  16.8383320  12.7645546
  31.6968115  16.9381417  12.7857770  30.5754142  16.0461588  13.2743630
  28.7665071  13.9238903  12.9504947  28.1715003  14.2043915  12.2551436
  28.4814768  14.4132804  13.7221688  27.8972562  27.8761830   1.7107579
  28.8303235  27.8107391   1.9140455  27.8095775  28.7118096   1.2522112
  33.2238770  20.0589439  11.8787846  33.1915090  19.1205440  12.0647529
  33.8339393  20.1373476  11.1453671  33.3733258  16.8500483  11.9246129
  32.8572307  16.0658939  11.7376058  34.2573207  16.5219199  12.0892648
  39.0415319  21.1205446  11.0193882  39.7718708  20.8590734  11.5801586
  38.4322265  20.3834168  11.0595950  37.1230617  19.2613309  11.6168334
  36.3963780  19.1269274  11.0084825  36.7077903  19.5690137  12.4225052
  24.9460793  22.9803238  19.3815707  25.8663802  23.1581837  19.5755753
  24.9110376  22.0359284  19.2295406  17.9422866  20.8904273  12.0238488
  18.1608875  21.8221381  12.0426522  18.3548639  20.5312247  12.8093292
  22.8150731  16.4637479  21.4141237  22.7147458  17.4131836  21.3453328
  22.5972273  16.1355718  20.5417307  22.6782001  19.8934618  20.2306298
  22.1949083  20.6934978  20.4370187  22.7642940  19.9042562  19.2773742
  18.6055338  23.7839152  12.2674732  19.5598592  23.7523095  12.2004664
  18.4067862  23.3229776  13.0824958  19.1954721  22.3540268  14.8345530
  20.0147610  22.8484347  14.8580367  19.4691528  21.4372236  14.8063097
  32.3035853  14.7697542   7.9127825  33.0796243  15.2593994   8.1852441
  31.5783987  15.1955596   8.3699694  34.7408411  15.4825161   8.9701765
  35.3352902  15.2420897   8.2595073  34.8134995  14.7632291   9.5975302
  16.9605567  29.3258772   9.2844930  16.8260035  28.5659173   8.7182928
  16.5437629  30.0499672   8.8173719  32.7367146  16.0495288   5.2373895
  32.4804081  15.6491924   6.0682103  32.1120014  16.7639082   5.1124034
  37.0479484  18.7891362   7.7445186  36.4879042  18.8584551   8.5176749
  36.4422988  18.6132346   7.0244683  20.1174693  30.2228089   9.4963373
  20.0007077  31.1673521   9.3942063  19.2967139  29.9201650   9.8849172
  14.4489635  16.6878402  15.5337727  15.0948498  16.1777356  16.0224952
  14.2406786  17.4247084  16.1081152  21.1429207  30.8756351  12.7119301
  22.0456454  30.9079961  13.0285796  20.9166577  29.9456802  12.7265637
  22.8982809  29.6287337   9.3729380  21.9478440  29.6289199   9.2593752
  23.2015295  28.8820072   8.8565414  18.7887126  13.8346019  19.6312741
  19.6518587  13.4782824  19.8416066  18.2152536  13.4959914  20.3188145
  38.6335503  35.4647876  10.4375142  39.2713913  35.3454623   9.7338482
  38.5156346  36.4128720  10.4963094  35.4425209  35.4175304  10.3736667
  35.1043720  35.3016368   9.4857202  36.3114977  35.0166469  10.3537673
  31.3012025  37.2710780   6.3633558  30.7376890  37.1800717   5.5949846
  31.1864420  36.4510685   6.8436050  28.8476457  38.7661972   9.2017778
  29.6397749  38.4252796   8.7864078  29.0873107  38.8756947  10.1219932
  36.8811583  40.9381748   1.6748023  36.2299563  41.5235828   1.2882037
  37.6755946  41.4687943   1.7343060  30.8067211  38.0270885   2.0735157
  31.5798087  37.4799872   1.9348033  31.1592609  38.8915134   2.2849618
  33.5708460  36.7324116  11.8703416  34.1672032  36.5080138  11.1560379
  33.6283431  35.9908861  12.4728864  33.1433488  34.1863551  -0.2946393
  33.3959009  33.6645072  -1.0562930  32.2058047  34.0229697  -0.1919709
  38.1876771  33.1899329   7.5128350  38.9739860  32.7718753   7.1618767
  38.4515476  34.0945422   7.6809999  38.3586849  38.6272180   2.2117007
  37.7232682  38.7006806   2.9237912  38.0284255  39.2165779   1.5336086
  43.5885198  33.1274563   8.4161329  44.3210370  32.5573779   8.6499158
  42.8324554  32.7396163   8.8567834  32.8629777  36.0891657   1.9077982
  32.7466035  35.4136560   2.5759066  32.9732037  35.6024031   1.0910135
  35.2061318  35.5501804   5.6124671  34.8419525  35.0232425   6.3237593
  36.0628434  35.1600273   5.4391157  41.1110619  26.8396137  12.8755937
  40.7793943  27.7091548  12.6517152  40.5156232  26.5232421  13.5549968
  34.8466805  30.5791704   0.6086020  35.0141207  31.4471940   0.9756491
  34.6563974  30.7418986  -0.3152691  37.6042138  39.0408683  12.2751850
  37.3042861  39.9433722  12.1667657  37.2593198  38.7740866  13.1273003
  31.0554620  35.4922480   8.3088554  30.1305116  35.3598694   8.5166246
  31.3039033  36.2716699   8.8058497  41.0039282  31.5591223   9.9549287
  40.0956159  31.4906631   9.6608048  40.9526878  32.0363168  10.7831113
  34.8256026  33.0349361   1.5932687  34.7055651  33.4806412   2.4318167
  34.1308614  33.3834679   1.0346225  28.4163431  35.1355753   9.1432344
  28.5455812  35.3890232  10.0571755  27.7360882  35.7283461   8.8236999
  32.5862918  45.8053003   5.2422818  32.5086948  46.7560828   5.3211298
  31.9824562  45.4598876   5.8997744  42.8700928  29.7607661  11.7327161
  42.2275309  30.0540195  11.0866956  42.3655857  29.6460582  12.5380358
  40.5241092  33.5070835   2.4213021  41.4358948  33.7398221   2.2460718
  40.0150739  34.0907879   1.8588099  39.1310674  38.4896653   9.8126602
  38.5019537  38.6542367   9.1102670  38.7436336  38.9038263  10.5837566
  43.0099906  39.4251091   7.1670966  42.3250944  39.8049992   6.6167999
  43.0943756  40.0346417   7.9002914  37.8677067  29.6828871  10.6702881
  37.0061546  29.9810124  10.9619619  37.8939501  29.8999269   9.7383914
  34.6838636  38.2271061   7.0776687  35.1476982  38.5058764   6.2881310
  34.4195434  37.3254506   6.8949778  31.5762717  37.7742543  10.0156450
  32.1464074  38.2029811   9.3773935  32.1670829  37.4925127  10.7140636
  33.6207522  34.3494213   3.8866252  34.3231566  34.8015257   4.3540179
  33.2888151  33.7078032   4.5146145  27.3632856  32.6077766   9.1883386
  26.5731910  32.8635295   8.7123496  27.8544104  33.4226104   9.2935426
  29.3147602  32.9722345   6.1466863  28.5178765  33.0841040   6.6650358
  29.0873194  33.3108998   5.2807753  35.1453269  39.4967049  14.0949377
  35.2097702  39.9587456  14.9307549  34.4364193  38.8664413  14.2231687
  25.6470559  32.8608257  11.6198377  25.8978598  33.7455266  11.8855953
  26.1830108  32.6812858  10.8473468  49.4702659  36.2921754   8.2873638
  48.7166367  35.7229152   8.1317643  49.6050200  36.2584418   9.2344273
  34.8601287  41.1635156   3.9628357  34.7246962  42.0086692   4.3913205
  35.4011099  41.3654434   3.1994291  28.3130684  38.6810594   4.5356283
  28.8255205  39.4753844   4.6861847  28.9653397  37.9836885   4.4689884
  30.1225569  41.7976350   6.6179036  30.2992197  42.7194315   6.4300020
  30.9182403  41.4834770   7.0473416  38.2093750  24.6865718  12.4927251
  37.8658020  25.5767360  12.4166362  38.5772713  24.4967376  11.6296836
  26.2779601  37.0099248   5.3115853  27.1154823  37.4196257   5.0949561
  26.4557869  36.0698691   5.2816047  38.1744033  34.6774329   0.9999686
  37.6590657  35.4478934   1.2388073  37.9021342  34.0039465   1.6232748
  35.7591144  29.5224030   6.0584924  34.9032741  29.1330880   5.8790563
  36.1718096  29.6015991   5.1984710  37.2890291  27.0570373  10.4576484
  36.7855086  27.0200508   9.6444289  37.5820898  27.9663116  10.5173141
  33.5333177  27.1409103   9.4642666  34.3986174  26.9451912   9.1048555
  33.6010686  26.9119455  10.3912023  43.1478307  37.4306684   2.9352860
  42.3707750  37.0917843   2.4908022  43.8269788  37.4359307   2.2607825
  37.9630336  32.5501421   2.8259467  37.6580472  32.8647570   3.6769610
  38.9160778  32.6282841   2.8686800  36.4076768  38.7091644   4.4752421
  35.8798130  37.9744404   4.1625659  35.9064271  39.4866321   4.2292390
  41.3869614  36.9040665   9.5919468  40.7293289  37.5939926   9.6799596
  42.1910013  37.2937097   9.9353454  31.1395496  29.3711311   6.8359033
  31.7139248  29.1486492   6.1032226  31.7266478  29.4400005   7.5887634
  40.1975073  35.2585038   7.6423409  40.7106955  35.8915029   8.1445119
  40.8476297  34.6586233   7.2766769  31.4665083  31.4015772   0.8554918
  30.6302395  31.7390458   1.1764193  31.3269853  31.2664752  -0.0817945
  33.4418164  26.2452560   5.5634102  32.7882576  25.9301577   4.9390717
  33.3998638  25.6228300   6.2893925  34.5529368  36.5271855  -2.5212606
  33.6456430  36.2961108  -2.3221457  35.0500400  35.7309474  -2.3338624
  37.4597447  45.2369362   0.3984080  36.7859146  45.5401059   1.0069038
  37.8463269  46.0398442   0.0489537  36.6755904  32.7334493   9.8881750
  35.7578465  32.9549440   9.7303438  37.0916048  32.8080804   9.0293457
  37.4590952  34.1325909   5.0184430  38.2062771  34.6447306   4.7091552
  37.7282541  33.8109962   5.8788824  35.7317602  36.6284450   2.0011384
  34.8228821  36.3443482   2.0983854  35.7612686  37.0483528   1.1414691
  40.9636869  40.2391039   5.7702552  40.5099196  39.3981949   5.8267742
  40.3330836  40.8752437   6.1077332  39.9069789  31.1683025   7.0003219
  39.1692546  30.6560411   7.3313462  40.1596562  30.7283407   6.1886496
  39.4069808  42.0767536   6.7052370  39.6992783  42.6372593   5.9864736
  39.9168429  42.3696097   7.4605529  40.0081416  23.9459277   7.5944989
  40.3140293  23.0856641   7.3070904  40.7334021  24.5376897   7.3943983
  26.3005772  34.3489964   5.9826587  26.1030172  33.7559324   5.2577653
  25.7452436  34.0442174   6.7002525  34.2802496  34.2413070   8.1021180
  34.3351106  33.2886907   8.0263656  33.4693698  34.3972509   8.5862478
  35.4293690  38.1693193  -0.6600537  34.9913120  37.4529052  -1.1194900
  36.1704130  38.3969308  -1.2215446  32.2194856  32.8590130   5.8611559
  31.4062721  33.1584300   6.2676751  32.7153850  32.4645819   6.5786041
  34.3703434  42.8547887   7.7945823  34.3279612  43.0808733   6.8654355
  35.2866133  42.6211261   7.9431624  43.5466804  36.4450390   5.3975781
  43.4084703  36.6351986   4.4696971  43.1903023  37.2069773   5.8543833
  31.7108931  30.4308485  11.4772794  32.3508310  30.2897245  10.7795757
  30.8786461  30.1442999  11.1011396  43.5736184  38.5126917  10.4087053
  44.0072691  38.4202206  11.2570107  44.2867765  38.4884418   9.7707069
  32.4869234  39.7310916   7.5907786  33.2809833  39.2361236   7.3890361
  31.7760927  39.2028779   7.2275492  37.3064079  42.1129011  11.9420154
  37.3601101  42.6819948  12.7097869  36.4378860  42.2830896  11.5774191
  28.7951998  33.8753998   3.6667539  27.8649586  33.8138453   3.8837501
  28.8909470  33.3529950   2.8704180  28.7137547  30.4008810   6.2545780
  28.9744364  31.3154144   6.1454941  29.5354719  29.9333253   6.4042393
  44.4351734  38.5550618  12.9419938  44.6287624  39.4596428  13.1879213
  44.3352352  38.0958037  13.7758523  36.2652179  36.2789273  13.5007085
  37.1944239  36.4300433  13.3276053  35.8443209  36.3673294  12.6455732
  35.0640510  40.3039938  11.2705623  34.9251596  39.9358722  12.1431561
  34.2755107  40.8187577  11.0989581  35.6588662  45.4049034   2.6131160
  35.8340418  44.9337078   3.4276782  34.9721450  46.0314801   2.8412420
  36.6145726  39.6821541   8.6594461  36.2795558  39.6422311   9.5552111
  36.1149671  39.0166256   8.1864871  39.5504917  37.0277575  -1.0668479
  38.9334088  36.3024403  -1.1635427  39.0821406  37.7886935  -1.4101405
  30.2249748  48.5538397   9.3871020  30.4646346  49.1856921  10.0650038
  29.3818944  48.2026437   9.6736379  31.3403463  31.2462999  -1.9447175
  30.4632929  31.1251800  -2.3084929  31.8161216  30.4549078  -2.1968287
  22.8605603  36.0340159   8.1494332  23.5476643  35.7201889   7.5615347
  22.7053732  36.9381524   7.8761583  27.6640325  30.9230356  12.5779356
  27.5798514  30.3156025  11.8429766  26.8423032  31.4139374  12.5788852
  34.5267389  43.5989290   5.3015345  33.7434911  44.1410970   5.3953570
  35.2260134  44.1163269   5.7009586  37.8364039  29.4083919   7.9449551
  38.3332739  28.6553881   7.6250621  37.0651021  29.4448236   7.3792760
  45.6893797  35.1124285   9.5867842  45.6783673  35.9949000   9.2161775
  44.8211176  34.7595835   9.3922379  38.9193820  38.1655606   5.5187974
  37.9850099  38.2857069   5.3492678  39.0970488  37.2628073   5.2547984
  34.4199008  31.5501302   7.6721235  34.0496796  30.9972342   8.3602141
  34.9158101  30.9459436   7.1196235  42.3066371  34.0072926   6.0538008
  42.7726824  34.8400917   5.9798311  42.7573872  33.5417907   6.7583267
  40.3742602  40.3516747   3.0524160  40.6502446  40.2373341   3.9618034
  39.5047101  39.9534232   3.0136333  40.2783034  26.3753513  10.0928910
  39.3646114  26.6057739  10.2611116  40.7076136  26.4591957  10.9442942
  40.0489493  34.5643404  12.5928804  39.3960943  34.8119312  11.9381256
  40.4269872  33.7507543  12.2591281  37.0096666  44.6003098   6.6956974
  37.1919061  43.7824754   7.1584726  37.8329652  44.8170790   6.2581864
  37.3438832  43.5271283   3.9572022  37.8726598  43.0163737   3.3442184
  37.6067052  43.2113813   4.8217555  27.8455925  41.5435152  11.7007356
  28.4309362  40.7978840  11.8335260  27.6480763  41.8539109  12.5844020
  30.6994580  44.5786399   6.7169798  30.0304955  45.0632527   6.2333838
  30.5607450  44.8255620   7.6313177  22.4373579  34.1140752  10.4211799
  22.4757679  33.5804343  11.2148917  21.9313872  33.5875958   9.8022776
  26.0682157  32.8404854   3.4965730  26.3635598  31.9315533   3.4432784
  25.1670193  32.8192594   3.1746733  37.9768236  44.5612119  10.3016139
  37.8519375  43.7601858   9.7927084  38.6347327  45.0558312   9.8130109
  29.5976404  30.9160851   9.4793279  28.8762990  31.5296819   9.3400752
  30.3869660  31.4518616   9.4009925  40.0403144  42.3621139  11.9295689
  39.0933480  42.2426490  11.8574016  40.3885917  41.4743637  12.0121950
  27.7969999  30.5218952   3.6205056  27.4682705  29.6416331   3.4380162
  28.1509369  30.4666621   4.5081445  37.0449577  42.1573855   8.1300041
  36.8974540  41.2290562   8.3107611  37.8703071  42.1793946   7.6457116
  30.9111822  30.8091922   3.9880533  31.2507894  31.3377843   3.2659142
  31.3583942  31.1472328   4.7639100  40.6483699  42.9802414   9.2164914
  41.5730247  42.7745275   9.0789365  40.4799003  42.7318815  10.1254255
  34.2571734  26.2778285  11.8910924  35.0797804  25.8038763  11.7689815
  34.5009798  27.0568769  12.3909611  32.8979969  29.3066544   2.1873826
  33.6188331  29.6847796   1.6837543  32.2745273  30.0255420   2.2908804
  37.0411092  30.0111692   3.1232158  37.2574706  30.8936330   2.8220987
  36.5605159  29.6197906   2.3937800  31.7810313  32.9697406   9.7002903
  31.6354894  33.2837709  10.5927184  31.3035517  33.5882306   9.1473802
  33.6406696  29.9599954   9.7483793  33.6268265  29.0641047   9.4116090
  34.3579124  29.9670617  10.3822079  35.4932827  30.3937294  11.7936920
  35.2350605  31.3154365  11.7921250  34.9617867  29.9967728  12.4837384
  40.4379016  43.4988081   4.5727005  40.6115893  42.9334503   3.8200858
  40.9307907  44.2988976   4.3906495  26.2555975  35.5102750  12.6390564
  25.7109443  36.2862558  12.7710838  27.1335325  35.8573555  12.4809686
  33.0443592  28.8414334   5.0171363  33.1659503  27.9130980   5.2162250
  32.7545634  28.8553020   4.1049678  35.9134782  26.5269244   8.1538083
  35.9356479  26.5908577   7.1990062  36.3302841  25.6873753   8.3478589
  46.2918407  36.2624504   6.1917305  46.7349553  35.5131829   5.7936428
  45.4144917  36.2534640   5.8091037  41.4254188  42.8154845   1.6723904
  42.1205093  43.4361538   1.8911218  41.7677338  41.9650197   1.9476282
  43.3245611  40.2654551   3.2011234  43.8496935  40.6041824   2.4760554
  43.2367964  39.3301566   3.0174369  35.0086272  46.3326534   7.5606488
  34.5691262  45.8402913   8.2539344  35.7594389  45.7899502   7.3198563
  27.4878611  42.5238075   7.5631116  28.3136631  42.2241847   7.1829759
  27.1372663  41.7545698   8.0120904  32.4560144  41.8764543   9.6328789
  31.8340153  41.2135248   9.3331017  33.1265011  41.9025675   8.9502437
  25.6887216  40.4424402   8.5220049  24.8519124  40.0146576   8.3404050
  25.6610861  40.6356845   9.4590840  32.0173651  40.4268467   3.1087250
  32.1661771  41.1103931   2.4553923  32.8240094  40.4073557   3.6236706
  45.8351271  37.7329742   8.5839753  46.6698163  38.1719546   8.7477313
  45.9710400  37.2568395   7.7647998  29.7726284  36.4533644   4.1148319
  29.5272326  35.5495974   4.3128529  29.9422198  36.4550795   3.1727797
  37.4622994  27.3257321  13.4973074  37.9804938  28.0618348  13.1719563
  37.1078127  27.6321314  14.3319833  29.0421931  32.1862002   1.6134480
  28.3491176  32.2606357   0.9574516  28.7973683  31.4222346   2.1355997
  37.7135588  23.7457603   9.0173971  37.9937342  23.0780792   9.6434397
  38.4986195  23.9386699   8.5048635  35.5169056  42.9216597   0.5798997
  34.9443024  43.5406784   0.1269469  36.0901850  43.4715959   1.1138919
  41.5844446  32.1675237  12.7645546  42.5361869  32.2673335  12.7857770
  41.4147897  31.3753506  13.2743630  39.6058826  29.2530820  12.9504947
  39.0108758  29.5335833  12.2551436  39.3208522  29.7424721  13.7221688
  38.7366316  43.2053747   1.7107579  39.6696989  43.1399309   1.9140455
  38.6489529  44.0410014   1.2522112  44.0632524  35.3881357  11.8787846
  44.0308844  34.4497358  12.0647529  44.6733148  35.4665394  11.1453671
  35.9015855  34.2577410  -2.0784950  36.8474960  34.1283618  -2.0096532
  35.5230100  33.5192072  -1.6015522  44.2127013  32.1792400  11.9246129
  43.6966061  31.3950857  11.7376058  45.0966961  31.8511117  12.0892648
  41.8737739  25.9233416   7.8841942  41.6762561  25.6148504   8.7685273
  42.4837445  26.6495055   8.0139871  49.8809074  36.4497364  11.0193882
  50.6112462  36.1882652  11.5801586  49.2716019  35.7126086  11.0595950
  47.9624371  34.5905226  11.6168334  47.2357535  34.4561191  11.0084825
  47.5471658  34.8982055  12.4225052  34.0858772  32.1827386  -2.1430065
  33.1790227  31.8860499  -2.0667351  34.3634753  31.8857204  -3.0095779
  25.0036712  33.5033750   8.3068981  24.6839497  32.6499058   8.0143355
  24.4570141  33.7182328   9.0626949  28.7816620  36.2196191  12.0238488
  29.0002630  37.1513298  12.0426522  29.1942394  35.8604165  12.8093292
  35.7020838  26.7264276   4.0114176  34.8921566  26.3811361   4.3869422
  36.3905255  26.4171820   4.6001788  37.6311386  25.8042323   5.6338473
  38.1842425  26.2237776   6.2928496  37.8681472  24.8778071   5.6761429
  24.8724972  37.1236661  10.2762103  24.1788444  36.7090614   9.7632057
  25.6197963  37.1657198   9.6795522  41.0090193  27.9142848   5.1417137
  40.4288862  28.5727652   4.7595190  40.7426126  27.0920193   4.7304555
  39.4593760  27.3147906   7.3438457  39.9593538  27.4264440   6.5352776
  40.1029367  27.0108958   7.9839266  26.7861715  37.0554915   8.1528118
  26.7632403  37.1542602   7.2010001  27.0962352  37.9020066   8.4745284
  39.7915071  30.0742938   4.1973485  38.9040926  30.3592589   3.9793680
  40.2069060  29.9136702   3.3500762  43.1429607  30.0989459   7.9127825
  43.9189997  30.5885912   8.1852441  42.4177742  30.5247513   8.3699694
  45.5802166  30.8117079   8.9701765  46.1746657  30.5712814   8.2595073
  45.6528750  30.0924209   9.5975302  27.7999322  44.6550689   9.2844930
  27.6653790  43.8951090   8.7182928  27.3831384  45.3791589   8.8173719
  38.9358285  39.8387613  -1.7078495  39.6394135  40.0437615  -1.0920839
  38.2120933  40.4064375  -1.4429411  39.7656095  35.5897474   4.4123776
  39.7091296  36.0466026   3.5731408  40.3184437  34.8288159   4.2346618
  43.5760901  31.3787206   5.2373895  43.3197835  30.9783842   6.0682103
  42.9513769  32.0931000   5.1124034  47.8873239  34.1183279   7.7445186
  47.3272797  34.1876469   8.5176749  47.2816742  33.9424264   7.0244683
  30.9568448  45.5520006   9.4963373  30.8400832  46.4965439   9.3942063
  30.1360894  45.2493568   9.8849172  40.8444982  40.2770142   0.3419965
  41.6790586  39.8451341   0.1597440  40.6829325  40.1052156   1.2696860
  40.4990874  36.7802255   1.7076305  40.4439678  36.6146527   0.7664749
  39.8736930  37.4878288   1.8638494  33.8087000  26.2810364   1.2861623
  33.7965670  27.2252204   1.4429894  34.7010422  26.0980510   0.9921084
  33.7376564  44.9579255   9.3729380  32.7872195  44.9581117   9.2593752
  34.0409050  44.2111989   8.8565414  37.6239119  22.8753141   5.5407560
  36.8571515  22.3211628   5.6864242  38.0349824  22.9475010   6.4021712
  49.4729257  50.7939793  10.4375142  50.1107667  50.6746541   9.7338482
  49.3550100  51.7420637  10.4963094  46.2818963  50.7467221  10.3736667
  45.9437475  50.6308286   9.4857202  47.1508732  50.3458386  10.3537673
  42.1405779  52.6002698   6.3633558  41.5770644  52.5092635   5.5949846
  42.0258174  51.7802602   6.8436050  46.7638746  51.9002073  16.3322872
  46.7527387  51.5054871  15.4603376  46.9259386  51.1668146  16.9256644
  39.6870211  54.0953889   9.2017778  40.4791503  53.7544714   8.7864078
  39.9266861  54.2048864  10.1219932  43.4846008  54.6839185  15.2802056
  43.1935874  55.5884816  15.1648723  44.1202992  54.7255713  15.9946126
  44.4102214  52.0616033  11.8703416  45.0065787  51.8372056  11.1560379
  44.4677186  51.3200779  12.4728864  49.0270526  48.5191247   7.5128350
  49.8133615  48.1010670   7.1618767  49.2909230  49.4237339   7.6809999
  54.4278953  48.4566480   8.4161329  55.1604125  47.8865697   8.6499158
  53.6718309  48.0688081   8.8567834  51.9504373  42.1688054  12.8755937
  51.6187698  43.0383465  12.6517152  51.3549987  41.8524338  13.5549968
  48.4435893  54.3700600  12.2751850  48.1436616  55.2725639  12.1667657
  48.0986952  54.1032784  13.1273003  41.8948374  50.8214397   8.3088554
  40.9698871  50.6890611   8.5166246  42.1432787  51.6008617   8.8058497
  51.8433036  46.8883141   9.9549287  50.9349914  46.8198549   9.6608048
  51.7920632  47.3655086  10.7831113  39.2557185  50.4647671   9.1432344
  39.3849566  50.7182150  10.0571755  38.5754637  51.0575379   8.8236999
  45.9173902  48.3072786  17.8984185  45.1407236  48.8666706  17.8887049
  46.5564465  48.7929569  18.4199055  53.7094683  45.0899579  11.7327161
  53.0669063  45.3832112  11.0866956  53.2049611  44.9752499  12.5380358
  44.1720275  51.1158240  17.4602152  44.9134959  51.6543284  17.1836975
  43.4657260  51.7424528  17.6173703  49.6475614  53.2587380  16.0574313
  50.0558970  52.8169791  15.3128946  48.9252876  52.6840008  16.3108506
  46.0006684  48.1959987  13.4307870  46.8467879  48.6199400  13.5742519
  45.9405322  47.5393611  14.1246433  49.9704429  53.8188571   9.8126602
  49.3413291  53.9834285   9.1102670  49.5830091  54.2330180  10.5837566
  49.1506130  45.8564355  15.0889044  48.9067061  46.6106416  14.5523319
  49.4266060  46.2349703  15.9236291  51.1044592  52.4002968  13.7666309
  51.3161488  53.0434727  13.0900690  51.0574341  51.5665284  13.2988239
  48.7070821  45.0120788  10.6702881  47.8455300  45.3102042  10.9619619
  48.7333256  45.2291187   9.7383914  42.4156472  53.1034460  10.0156450
  42.9857829  53.5321729   9.3773935  43.0064584  52.8217045  10.7140636
  42.9081638  48.2697888  18.2617462  42.2780299  48.9514169  18.4952858
  42.8017726  48.1580969  17.3170600  38.2026611  47.9369684   9.1883386
  37.4125665  48.1927212   8.7123496  38.6937858  48.7518022   9.2935426
  52.2190420  55.2774923  11.9388667  53.0407864  54.8755110  11.6571348
  52.2152823  55.1743157  12.8904782  40.1541356  48.3014263   6.1466863
  39.3572519  48.4132957   6.6650358  39.9266948  48.6400915   5.2807753
  45.9847024  54.8258966  14.0949377  46.0491456  55.2879373  14.9307549
  45.2757948  54.1956331  14.2231687  40.2471680  49.1732900  16.4941199
  40.1325195  48.2718157  16.7948298  39.3916198  49.4196597  16.1426015
  47.3263518  57.1150640  18.0928700  46.8827372  56.3287019  17.7749604
  47.9880731  57.3029791  17.4272590  42.0850639  58.6446442  12.6189378
  42.6358064  58.5163505  11.8466372  41.2462115  58.9441331  12.2684271
  49.4244756  57.3953440  16.1210101  49.4063231  58.2162321  15.6290370
  50.3464676  57.2707515  16.3460242  45.8817810  54.9097570  16.9633609
  46.4146147  54.1485858  16.7332917  45.3531891  54.6171221  17.7057764
  49.0487505  40.0157636  12.4927251  48.7051774  40.9059277  12.4166362
  49.4166468  39.8259293  11.6296836  37.1173356  52.3391166   5.3115853
  37.9548578  52.7488174   5.0949561  37.2951623  51.3990608   5.2816047
  46.5984899  44.8515948   6.0584924  45.7426495  44.4622798   5.8790563
  47.0111850  44.9307908   5.1984710  48.1284045  42.3862291  10.4576484
  47.6248841  42.3492426   9.6444289  48.4214652  43.2955033  10.5173141
  44.3726931  42.4701020   9.4642666  45.2379928  42.2743829   9.1048555
  44.4404440  42.2411372  10.3912023  52.2263369  52.2332583   9.5919468
  51.5687043  52.9231844   9.6799596  53.0303768  52.6229015   9.9353454
  41.9789250  44.7003228   6.8359033  42.5533002  44.4778410   6.1032226
  42.5660233  44.7691923   7.5887634  44.2811918  41.5744477   5.5634102
  43.6276330  41.2593495   4.9390717  44.2392392  40.9520218   6.2893925
  47.5149658  48.0626411   9.8881750  46.5972220  48.2841358   9.7303438
  47.9309802  48.1372721   9.0293457  50.7463543  46.4974943   7.0003219
  50.0086300  45.9852329   7.3313462  50.9990317  46.0575324   6.1886496
  50.8475171  39.2751195   7.5944989  51.1534047  38.4148558   7.3070904
  51.5727775  39.8668815   7.3943983  37.1399527  49.6781881   5.9826587
  36.9423927  49.0851242   5.2577653  36.5846191  49.3734092   6.7002525
  45.1196250  49.5704988   8.1021180  45.1744860  48.6178824   8.0263656
  44.3087452  49.7264427   8.5862478  43.0588610  48.1882048   5.8611559
  42.2456476  48.4876218   6.2676751  43.5547604  47.7937736   6.5786041
  48.6562822  48.6523872  14.6926452  49.0112210  48.8795345  15.5520918
  49.3034953  48.9842249  14.0703708  42.5502685  45.7600403  11.4772794
  43.1902064  45.6189162  10.7795757  41.7180216  45.4734917  11.1011396
  43.3262989  55.0602834   7.5907786  44.1203587  54.5653154   7.3890361
  42.6154681  54.5320697   7.2275492  48.1457833  57.4420929  11.9420154
  48.1994856  58.0111865  12.7097869  47.2772615  57.6122814  11.5774191
  39.6345752  49.2045915   3.6667539  38.7043341  49.1430371   3.8837501
  39.7303224  48.6821868   2.8704180  39.5531301  45.7300728   6.2545780
  39.8138119  46.6446061   6.1454941  40.3748474  45.2625171   6.4042393
  41.0256227  47.1438485  13.4244605  41.6979280  46.9355847  12.7757254
  40.1986013  46.9460571  12.9849837  55.2745488  53.8842536  12.9419938
  55.4681378  54.7888346  13.1879213  55.1746106  53.4249955  13.7758523
  46.9281799  43.7700426  15.4410266  46.2809714  44.4690376  15.3474742
  47.6982814  44.2036570  15.8086514  50.3360597  54.0349278  18.5160819
  50.1846103  53.8059830  17.5990903  50.3265276  54.9919880  18.5292164
  47.1045933  51.6081191  13.5007085  48.0337993  51.7592351  13.3276053
  46.6836963  51.6965212  12.6455732  45.9034265  55.6331856  11.2705623
  45.7645351  55.2650640  12.1431561  45.1148861  56.1479495  11.0989581
  47.4539480  55.0113458   8.6594461  47.1189313  54.9714228   9.5552111
  46.9543426  54.3458174   8.1864871  41.4283724  50.4181088  14.1847042
  41.2903522  49.6861327  14.7858581  42.3388648  50.3289988  13.9031230
  44.0566025  50.1301048  13.6730722  44.7665643  49.4894240  13.6317340
  44.0135333  50.3813942  14.5956902  52.0452803  57.0668401  16.5937301
  51.9865350  56.3827621  15.9267884  52.4472322  57.8087391  16.1417927
  42.7694959  47.1166265  15.4926361  42.2332316  46.6657004  16.1447957
  42.1811667  47.2512174  14.7496825  52.0470211  55.0307985  14.8251281
  51.1596989  54.6933907  14.9477679  52.6168762  54.2991016  15.0620046
  33.6999358  51.3632077   8.1494332  34.3870398  51.0493807   7.5615347
  33.5447486  52.2673441   7.8761583  45.5771364  59.6909437  11.7912524
  45.5041536  60.4964409  12.3031828  45.1348757  59.8901403  10.9660545
  48.6757794  44.7375837   7.9449551  49.1726493  43.9845799   7.6250621
  47.9044775  44.7740153   7.3792760  48.0370048  59.5896271  13.9470682
  48.7498020  60.2243736  13.8746584  47.5460076  59.6860137  13.1310684
  45.2592763  46.8793220   7.6721235  44.8890550  46.3264260   8.3602141
  45.7551855  46.2751353   7.1196235  43.0881961  57.3390715  14.7676253
  43.7891421  57.9727198  14.9205647  42.6177076  57.6805446  14.0071892
  51.1176789  41.7045430  10.0928910  50.2039868  41.9349657  10.2611116
  51.5469890  41.7883874  10.9442942  50.8883247  49.8935322  12.5928804
  50.2354697  50.1411230  11.9381256  51.2663627  49.0799460  12.2591281
  46.9370820  50.6355133  19.0794841  46.2611457  50.5349263  19.7497216
  47.7598454  50.4794347  19.5430838  38.6849679  56.8727070  11.7007356
  39.2703116  56.1270758  11.8335260  38.4874518  57.1831026  12.5844020
  45.6793603  61.9422061  13.3152457  46.2311911  62.1053682  14.0801542
  46.0199796  62.5326499  12.6432482  50.5304477  56.7683318  19.1701111
  51.0744381  57.3813276  18.6756066  49.9491322  57.3262897  19.6868124
  36.9075911  48.1696772   3.4965730  37.2029353  47.2607451   3.4432784
  36.0063947  48.1484512   3.1746733  40.4370158  46.2452769   9.4793279
  39.7156744  46.8588736   9.3400752  41.2263414  46.7810534   9.4009925
  50.8796899  57.6913056  11.9295689  49.9327234  57.5718407  11.8574016
  51.2279672  56.8035554  12.0121950  38.6363753  45.8510870   3.6205056
  38.3076459  44.9708249   3.4380162  38.9903124  45.7958538   4.5081445
  41.7505576  46.1383840   3.9880533  42.0901649  46.6669761   3.2659142
  42.1977697  46.4764246   4.7639100  44.4449017  44.5220890  13.4383601
  44.1045837  43.7228703  13.8404281  43.7388023  44.8222601  12.8660435
  45.0965489  41.6070203  11.8910924  45.9191558  41.1330681  11.7689815
  45.3403552  42.3860686  12.3909611  43.7373723  44.6358461   2.1873826
  44.4582086  45.0139714   1.6837543  43.1139027  45.3547338   2.2908804
  42.6204068  48.2989323   9.7002903  42.4748648  48.6129626  10.5927184
  42.1429271  48.9174224   9.1473802  44.4800451  45.2891871   9.7483793
  44.4662019  44.3932965   9.4116090  45.1972879  45.2962535  10.3822079
  46.3326581  45.7229212  11.7936920  46.0744359  46.6446282  11.7921250
  45.8011622  45.3259646  12.4837384  43.8837346  44.1706252   5.0171363
  44.0053258  43.2422898   5.2162250  43.5939389  44.1844938   4.1049678
  46.7528537  41.8561162   8.1538083  46.7750234  41.9200495   7.1990062
  47.1696596  41.0165671   8.3478589  45.8259414  59.5080542  15.3301111
  46.1346541  59.2629689  16.2023811  46.6234896  59.7127181  14.8419981
  38.3272365  57.8529993   7.5631116  39.1530385  57.5533765   7.1829759
  37.9766417  57.0837615   8.0120904  43.2953899  57.2056461   9.6328789
  42.6733908  56.5427166   9.3331017  43.9658765  57.2317593   8.9502437
  36.5280970  55.7716319   8.5220049  35.6912879  55.3438494   8.3404050
  36.5004616  55.9648763   9.4590840  43.3678426  45.6838249  19.2261295
  43.4166581  46.5600372  18.8439065  43.9100940  45.1415642  18.6532938
  53.8533272  56.2279372  18.5062432  53.0628815  56.2103511  17.9666932
  53.6166626  56.7667666  19.2611469  53.9731147  53.0771839  15.8195161
  54.0229152  52.9121846  16.7610684  53.8645070  52.2099098  15.4293042
  51.2634909  49.0602767  17.1354468  52.1644772  48.9209232  16.8438465
  51.3382884  49.2257221  18.0752645  45.5977714  46.4369621  15.9807654
  44.7281024  46.7303187  15.7090242  45.8337195  47.0210066  16.7014918
  55.4749344  55.4968780  16.0637182  55.1834152  55.8598761  16.9000643
  54.8621475  54.7835788  15.8850514  53.7236532  50.6201395  14.5317240
  54.1990653  50.8129041  13.7236092  52.8002097  50.6760581  14.2860624
  48.3016748  42.6549238  13.4973074  48.8198692  43.3910265  13.1719563
  47.9471881  42.9613232  14.3319833  39.8815686  47.5153920   1.6134480
  39.1884931  47.5898275   0.9574516  39.6367438  46.7514263   2.1355997
  48.5529342  39.0749521   9.0173971  48.8331096  38.4072710   9.6434397
  49.3379949  39.2678616   8.5048635  52.4238201  47.4967155  12.7645546
  53.3755624  47.5965253  12.7857770  52.2541651  46.7045423  13.2743630
  50.4452580  44.5822738  12.9504947  49.8502512  44.8627751  12.2551436
  50.1602277  45.0716639  13.7221688  54.9026279  50.7173275  11.8787846
  54.8702599  49.7789275  12.0647529  55.5126902  50.7957311  11.1453671
  55.0520767  47.5084318  11.9246129  54.5359816  46.7242775  11.7376058
  55.9360716  47.1803035  12.0892648  52.7131494  41.2525334   7.8841942
  52.5156315  40.9440422   8.7685273  53.3231200  41.9786972   8.0139871
  58.8018126  49.9197144  11.6168334  58.0751289  49.7853109  11.0084825
  58.3865412  50.2273973  12.4225052  46.6248302  53.6387074  19.3815707
  47.5451311  53.8165673  19.5755753  46.5897885  52.6943119  19.2295406
  35.8430467  48.8325667   8.3068981  35.5233251  47.9790976   8.0143355
  35.2963895  49.0474245   9.0626949  39.6210375  51.5488108  12.0238488
  39.8396384  52.4805216  12.0426522  40.0336148  51.1896083  12.8093292
  46.5414592  42.0556194   4.0114176  45.7315321  41.7103279   4.3869422
  47.2299009  41.7463737   4.6001788  48.4705141  41.1334240   5.6338473
  49.0236179  41.5529694   6.2928496  48.7075227  40.2069989   5.6761429
  51.8483948  43.2434766   5.1417137  51.2682617  43.9019570   4.7595190
  51.5819880  42.4212110   4.7304555  50.2987514  42.6439823   7.3438457
  50.7987292  42.7556358   6.5352776  50.9423122  42.3400876   7.9839266
  44.3569510  50.5518453  20.2306298  43.8736592  51.3518813  20.4370187
  44.4430449  50.5626398  19.2773742  37.6255469  52.3846833   8.1528118
  37.6026158  52.4834520   7.2010001  37.9356106  53.2311983   8.4745284
  40.2842847  54.4422988  12.2674732  41.2386101  54.4106930  12.2004664
  40.0855371  53.9813611  13.0824958  40.8742230  53.0124104  14.8345530
  41.6935118  53.5068182  14.8580367  41.1479037  52.0956072  14.8063097
  53.9823362  45.4281377   7.9127825  54.7583752  45.9177829   8.1852441
  53.2571496  45.8539431   8.3699694  56.4195920  46.1408996   8.9701765
  57.0140411  45.9004732   8.2595073  56.4922504  45.4216127   9.5975302
  38.6393076  59.9842607   9.2844930  38.5047544  59.2243008   8.7182928
  38.2225138  60.7083507   8.8173719  48.6530536  54.4143085  21.0329868
  49.5221696  54.5883737  20.6716502  48.1737287  55.2337502  20.9105597
  44.6480754  41.6102282   1.2861623  44.6359424  42.5544122   1.4429894
  45.5404176  41.4272428   0.9921084  42.8216716  61.5340186  12.7119301
  43.7243963  61.5663796  13.0285796  42.5954086  60.6040637  12.7265637
  48.4632874  38.2045059   5.5407560  47.6965269  37.6503546   5.6864242
  48.8743579  38.2766928   6.4021712  56.7567657  63.6364704  17.8984185
  55.9800991  64.1958624  17.8887049  57.3958220  64.1221487  18.4199055
  53.7475393  63.5989805  18.2617462  53.1174053  64.2806086  18.4952858
  53.6411481  63.4872887  17.3170600  53.0256136  57.9010571  20.6242713
  52.6323081  57.3476770  21.2990357  53.8422276  58.2121150  21.0149230
  55.9424097  59.3168450  18.2162969  56.6833810  59.9175603  18.1367432
  56.1742019  58.5746088  17.6581012  51.0865435  64.5024818  16.4941199
  50.9718950  63.6010075  16.7948298  50.2309952  64.7488514  16.1426015
  57.7675553  59.0992344  15.4410266  57.1203468  59.7982294  15.3474742
  58.5376569  59.5328488  15.8086514  51.4951851  59.6189128  13.9174341
  51.5593177  60.4803959  13.5051739  51.4318971  59.0063130  13.1846700
  50.9704123  61.6912261  17.5647376  51.5976162  61.3089338  18.1784900
  50.1132042  61.4726463  17.9303068  54.0790227  58.9099113  15.7533931
  54.6024628  59.1561409  16.5160240  53.8602560  59.7419148  15.3337068
  54.2072180  61.0130167  19.2261295  54.2560336  61.8892289  18.8439065
  54.7494695  60.4707560  18.6532938  55.3331994  62.4513232  21.4141237
  55.2328721  63.4007589  21.3453328  55.1153536  62.1231471  20.5417307
  55.1963264  65.8810371  20.2306298  54.7130346  66.6810731  20.4370187
  55.2824203  65.8918315  19.2773742  46.9670898  62.6754155  15.5337727
  47.6129762  62.1653109  16.0224952  46.7588049  63.4122837  16.1081152
  51.3068389  59.8221772  19.6312741  52.1699851  59.4658577  19.8416066
  50.7333800  59.4835667  20.3188145  36.4869765  18.7920845   4.8174006
  36.0433619  18.0057224   4.4994911  37.1486978  18.9799996   4.1517897
  38.5851003  19.0723645   2.8455407  38.5669478  19.8932526   2.3535677
  39.5070923  18.9477720   3.0705549  39.4966844  15.7119483   5.2406126
  39.3452350  15.4830035   4.3236209  39.4871523  16.6690085   5.2537471
  41.2059050  18.7438606   3.3182608  41.1471596  18.0597826   2.6513191
  41.6078569  19.4857596   2.8663234  36.0977067  12.3125338   5.8040147
  35.4217704  12.2119467   6.4742523  36.9204701  12.1564552   6.2676145
  34.8399850  23.6192266   0.0397763  35.3918158  23.7823887   0.8046849
  35.1806043  24.2096703  -0.6322212  39.6910724  18.4453523   5.8946418
  40.2350628  19.0583481   5.4001373  39.1097569  19.0033102   6.4113431
  34.9865661  21.1850747   2.0546418  35.2952788  20.9399894   2.9269117
  35.7841143  21.3897386   1.5665288  43.0139518  17.9049577   5.2307739
  42.2235062  17.8873716   4.6912238  42.7772873  18.4437871   5.9856776
  43.1337393  14.7542044   2.5440468  43.1835398  14.5892051   3.4855990
  43.0251317  13.8869303   2.1538348  44.6355590  17.1738985   2.7882489
  44.3440399  17.5368966   3.6245950  44.0227722  16.4605993   2.6095821
  35.7854549  15.3157279   6.1061013  36.7057558  15.4935878   6.3001060
  35.7504132  14.3713324   5.9540713  37.8136783  16.0913290   7.7575174
  38.6827942  16.2653942   7.3961809  37.3343534  16.9107707   7.6350904
  49.4729258  27.8001916  -2.8379551  50.1107668  27.6808663  -3.5416211
  49.3550101  28.7482760  -2.7791599  46.2818965  27.7529344  -2.9018026
  45.9437476  27.6370409  -3.7897492  47.1508733  27.3520509  -2.9217020
  46.7638748  28.9064196   3.0568179  46.7527388  28.5116994   2.1848683
  46.9259387  28.1730268   3.6501951  39.6870212  31.1016012  -4.0736915
  40.4791504  30.7606837  -4.4890616  39.9266863  31.2110987  -3.1534762
  43.4846009  31.6901308   2.0047363  43.1935875  32.5946938   1.8894029
  44.1202993  31.7317835   2.7191433  44.4102216  29.0678156  -1.4051277
  45.0065788  28.8434178  -2.1194314  44.4677187  28.3262902  -0.8025829
  48.4435894  31.3762723  -1.0002843  48.1436617  32.2787762  -1.1087036
  48.0986953  31.1094906  -0.1481690  41.8948375  27.8276520  -4.9666139
  40.9698872  27.6952734  -4.7588447  42.1432789  28.6070739  -4.4696196
  45.9173903  25.3134909   4.6229491  45.1407238  25.8728829   4.6132356
  46.5564467  25.7991692   5.1444361  44.1720276  28.1220362   4.1847458
  44.9134960  28.6605406   3.9082282  43.4657261  28.7486651   4.3419010
  49.6475615  30.2649503   2.7819620  50.0558971  29.8231913   2.0374252
  48.9252877  29.6902130   3.0353813  46.0006685  25.2022109   0.1553177
  46.8467881  25.6261523   0.2987826  45.9405323  24.5455734   0.8491740
  49.9704430  30.8250693  -3.4628091  49.3413293  30.9896407  -4.1652023
  49.5830092  31.2392303  -2.6917127  49.1506131  22.8626478   1.8134350
  48.9067063  23.6168538   1.2768626  49.4266061  23.2411825   2.6481597
  51.1044594  29.4065090   0.4911616  51.3161489  30.0496850  -0.1854003
  51.0574342  28.5727407   0.0233546  42.4156473  30.1096583  -3.2598243
  42.9857830  30.5383851  -3.8980758  43.0064585  29.8279168  -2.5614057
  42.9081640  25.2760010   4.9862768  42.2780300  25.9576291   5.2198165
  42.8017727  25.1643092   4.0415907  52.2190422  32.2837046  -1.3366027
  53.0407865  31.8817233  -1.6183345  52.2152824  32.1805280  -0.3849911
  45.9847025  31.8321089   0.8194684  46.0491458  32.2941496   1.6552856
  45.2757949  31.2018454   0.9476994  42.1862382  19.5780776   7.3488019
  41.7929328  19.0246975   8.0235664  43.0028523  19.8891355   7.7394537
  45.1030343  20.9938655   4.9408276  45.8440057  21.5945808   4.8612738
  45.3348266  20.2516293   4.3826318  40.2471681  26.1795023   3.2186506
  40.1325196  25.2780280   3.5193605  39.3916199  26.4258719   2.8671322
  47.3263519  34.1212763   4.8174006  46.8827373  33.3349141   4.4994911
  47.9880733  34.3091913   4.1517897  42.0850640  35.6508564  -0.6565315
  42.6358065  35.5225628  -1.4288321  41.2462116  35.9503453  -1.0070422
  49.4244757  34.4015563   2.8455407  49.4063232  35.2224444   2.3535677
  50.3464677  34.2769638   3.0705549  45.8817811  31.9159692   3.6878916
  46.4146148  31.1547980   3.4578224  45.3531892  31.6233344   4.4303070
  52.2263370  29.2394705  -3.6835226  51.5687044  29.9293967  -3.5955097
  53.0303769  29.6291137  -3.3401239  47.5149660  25.0688533  -3.3872944
  46.5972221  25.2903480  -3.5451255  47.9309803  25.1434844  -4.2461236
  45.1196252  26.5767110  -5.1733514  45.1744861  25.6240947  -5.2491037
  44.3087454  26.7326550  -4.6892215  48.6562823  25.6585995   1.4171759
  49.0112211  25.8857468   2.2766225  49.3034954  25.9904371   0.7949014
  42.5502686  22.7662526  -1.7981900  43.1902066  22.6251285  -2.4958937
  41.7180217  22.4797039  -2.1743298  43.3262990  32.0664956  -5.6846907
  44.1203589  31.5715276  -5.8864332  42.6154683  31.5382819  -6.0479202
  48.1457835  34.4483052  -1.3334540  48.1994857  35.0173988  -0.5656824
  47.2772616  34.6184937  -1.6980503  41.0256228  24.1500608   0.1489911
  41.6979281  23.9417970  -0.4997440  40.1986015  23.9522694  -0.2904856
  55.2745489  30.8904658  -0.3334755  55.4681379  31.7950469  -0.0875480
  55.1746107  30.4312077   0.5003830  46.9281800  20.7762549   2.1655572
  46.2809715  21.4752498   2.0720049  47.6982815  21.2098693   2.5331821
  50.3360598  31.0411401   5.2406126  50.1846104  30.8121953   4.3236209
  50.3265277  31.9982002   5.2537471  47.1045934  28.6143314   0.2252392
  48.0337994  28.7654473   0.0521359  46.6836964  28.7027335  -0.6298961
  45.9034266  32.6393978  -2.0049070  45.7645352  32.2712763  -1.1323132
  45.1148862  33.1541618  -2.1765112  47.4539481  32.0175581  -4.6160232
  47.1189314  31.9776351  -3.7202583  46.9543427  31.3520297  -5.0889822
  41.4283725  27.4243211   0.9092349  41.2903523  26.6923450   1.5103888
  42.3388649  27.3352111   0.6276536  44.0566026  27.1363170   0.3976028
  44.7665644  26.4956362   0.3562647  44.0135334  27.3876065   1.3202209
  52.0452805  34.0730524   3.3182608  51.9865351  33.3889744   2.6513191
  52.4472323  34.8149514   2.8663234  42.7694960  24.1228388   2.2171668
  42.2332317  23.6719127   2.8693264  42.1811668  24.2574297   1.4742132
  52.0470212  32.0370107   1.5496587  51.1596991  31.6996029   1.6722986
  52.6168763  31.3053139   1.7865353  45.5771365  36.6971560  -1.4842170
  45.5041537  37.5026531  -0.9722865  45.1348758  36.8963526  -2.3094148
  48.0370049  36.5958394   0.6715989  48.7498021  37.2305859   0.5991891
  47.5460077  36.6922260  -0.1444009  43.0881962  34.3452837   1.4921560
  43.7891422  34.9789320   1.6450954  42.6177077  34.6867569   0.7317199
  50.8883248  26.8997445  -0.6825890  50.2354699  27.1473352  -1.3373437
  51.2663628  26.0861583  -1.0163412  46.9370821  27.6417256   5.8040147
  46.2611458  27.5411385   6.4742523  47.7598455  27.4856470   6.2676145
  38.6849680  33.8789192  -1.5747337  39.2703117  33.1332880  -1.4419433
  38.4874519  34.1893149  -0.6910674  45.6793604  38.9484183   0.0397763
  46.2311912  39.1115805   0.8046849  46.0199798  39.5388621  -0.6322212
  40.6558097  21.2959333   0.6419648  40.7199424  22.1574164   0.2297046
  40.5925218  20.6833335  -0.0907993  40.1310370  23.3682466   4.2892682
  40.7582409  22.9859543   4.9030207  39.2738289  23.1496668   4.6548375
  50.5304479  33.7745441   5.8946418  51.0744383  34.3875399   5.4001373
  49.9491323  34.3325019   6.4113431  50.8796900  34.6975179  -1.3459004
  49.9327235  34.5780530  -1.4180678  51.2279673  33.8097677  -1.2632743
  43.2396473  20.5869318   2.4779237  43.7630875  20.8331614   3.2405547
  43.0208807  21.4189353   2.0582375  44.4449018  21.5283013   0.1628908
  44.1045839  20.7290826   0.5649588  43.7388025  21.8284724  -0.4094259
  45.0965490  18.6132325  -1.3843769  45.9191559  18.1392804  -1.5064879
  45.3403554  19.3922809  -0.8845083  42.6204069  25.3051446  -3.5751790
  42.4748650  25.6191749  -2.6827509  42.1429273  25.9236346  -4.1280892
  46.3326582  22.7291334  -1.4817773  46.0744360  23.6508405  -1.4833443
  45.8011623  22.3321769  -0.7917309  37.0949731  27.8456790  -0.6364129
  36.5503199  28.6216598  -0.5043855  37.9729081  28.1927595  -0.7945008
  37.8815753  26.9726687   2.2566028  37.1397489  27.1209322   2.8430658
  37.5608497  27.2334952   1.3932777  45.8259416  36.5142665   2.0546418
  46.1346542  36.2691812   2.9269117  46.6234898  36.7189303   1.5665288
  38.3272367  34.8592115  -5.7123578  39.1530387  34.5595887  -6.0924934
  37.9766419  34.0899738  -5.2633789  43.2953900  34.2118584  -3.6425904
  42.6733909  33.5489289  -3.9423676  43.9658767  34.2379715  -4.3252256
  36.5280972  32.7778442  -4.7534644  35.6912880  32.3500616  -4.9350643
  36.5004617  32.9710885  -3.8163853  43.3678427  22.6900372   5.9506602
  43.4166583  23.5662494   5.5684372  43.9100941  22.1477765   5.3778245
  53.8533273  33.2341495   5.2307739  53.0628817  33.2165634   4.6912238
  53.6166627  33.7729789   5.9856776  53.9731148  30.0833961   2.5440468
  54.0229153  29.9183969   3.4855990  53.8645071  29.2161220   2.1538348
  51.2634910  26.0664889   3.8599774  52.1644773  25.9271354   3.5683772
  51.3382885  26.2319344   4.7997952  45.5977716  23.4431744   2.7052961
  44.7281025  23.7365310   2.4335549  45.8337196  24.0272189   3.4260224
  55.4749345  32.5030903   2.7882489  55.1834153  32.8660883   3.6245950
  54.8621476  31.7897911   2.6095821  53.7236533  27.6263517   1.2562547
  54.1990655  27.8191164   0.4481398  52.8002098  27.6822703   1.0105931
  48.3016750  19.6611361   0.2218381  48.8198693  20.3972388  -0.1035130
  47.9471882  19.9675354   1.0565140  52.4238202  24.5029277  -0.5109147
  53.3755625  24.6027375  -0.4896923  52.2541652  23.7107546  -0.0011063
  50.4452582  21.5884861  -0.3249746  49.8502514  21.8689873  -1.0203258
  50.1602278  22.0778762   0.4466995  46.6248303  30.6449196   6.1061013
  47.5451313  30.8227795   6.3001060  46.5897886  29.7005242   5.9540713
  39.6210376  28.5550231  -1.2516205  39.8396386  29.4867339  -1.2328172
  40.0336150  28.1958205  -0.4661402  44.4938241  24.1283437   8.1386543
  44.3934968  25.0777794   8.0698635  44.2759783  23.8001676   7.2662614
  44.3569511  27.5580576   6.9551605  43.8736593  28.3580936   7.1615494
  44.4430450  27.5688520   6.0019049  40.2842849  31.4485110  -1.0079961
  41.2386102  31.4169053  -1.0750030  40.0855372  30.9875734  -0.1929735
  40.8742231  30.0186226   1.5590837  41.6935120  30.5130305   1.5825674
  41.1479038  29.1018194   1.5308404  38.6393077  36.9904730  -3.9909763
  38.5047545  36.2305131  -4.5571765  38.2225140  37.7145630  -4.4580974
  36.1277145  24.3524360   2.2583034  36.7736009  23.8423314   2.7470259
  35.9194296  25.0893042   2.8326459  48.6530537  31.4205208   7.7575174
  49.5221697  31.5945860   7.3961809  48.1737289  32.2399624   7.6350904
  42.8216717  38.5402309  -0.5635392  43.7243964  38.5725919  -0.2468897
  42.5954087  37.6102760  -0.5489056  40.4674636  21.4991977   6.3558048
  41.3306098  21.1428782   6.5661372  39.8940047  21.1605872   7.0433452
  56.7567658  40.6426826   4.6229491  55.9800992  41.2020747   4.6132356
  57.3958221  41.1283609   5.1444361  53.7475394  40.6051928   4.9862768
  53.1174055  41.2868209   5.2198165  53.6411482  40.4935010   4.0415907
  53.0256137  34.9072694   7.3488019  52.6323082  34.3538892   8.0235664
  53.8422277  35.2183272   7.7394537  55.9424098  36.3230573   4.9408276
  56.6833811  36.9237726   4.8612738  56.1742021  35.5808211   4.3826318
  51.0865436  41.5086940   3.2186506  50.9718951  40.6072197   3.5193605
  50.2309954  41.7550637   2.8671322  57.7675555  36.1054466   2.1655572
  57.1203470  36.8044416   2.0720049  58.5376570  36.5390610   2.5331821
  51.4951852  36.6251251   0.6419648  51.5593178  37.4866082   0.2297046
  51.4318972  36.0125252  -0.0907993  50.9704124  38.6974383   4.2892682
  51.5976163  38.3151461   4.9030207  50.1132043  38.4788585   4.6548375
  54.0790228  35.9161235   2.4779237  54.6024630  36.1623532   3.2405547
  53.8602561  36.7481270   2.0582375  54.2072182  38.0192289   5.9506602
  54.2560337  38.8954412   5.5684372  54.7494696  37.4769682   5.3778245
  55.3331996  39.4575354   8.1386543  55.2328722  40.4069711   8.0698635
  55.1153538  39.1293593   7.2662614  55.1963266  42.8872493   6.9551605
  54.7130347  43.6872853   7.1615494  55.2824205  42.8980438   6.0019049
  46.9670899  39.6816278   2.2583034  47.6129763  39.1715232   2.7470259
  46.7588051  40.4184959   2.8326459  51.3068390  36.8283895   6.3558048
  52.1699852  36.4720700   6.5661372  50.7333801  36.4897790   7.0433452
   6.1127640  43.9567713  21.5628328   5.3591348  43.3875112  21.4072333
   6.2475181  43.9230378  22.5098963   1.0776714  46.2196578  26.2174629
   1.2712604  47.1242388  26.4633904   0.9777333  45.7603997  27.0513214
   2.3318777  42.7770244  22.8622532   2.3208654  43.6594960  22.4916466
   1.4636157  42.4241795  22.6677070   2.9343387  43.9270464  19.4671995
   3.3774533  43.1777789  19.0691119   2.0569898  43.9180600  19.0845727
   1.2780570  47.8322822  29.3391873   0.9865378  48.1952803  30.1755334
   0.6652701  47.1189830  29.1605205   2.4776252  45.3975702  21.8594443
   3.3123144  45.8365506  22.0232003   2.6135381  44.9214355  21.0402689
   0.7057505  43.0527317  25.1542536   0.6733825  42.1143317  25.3402220
   1.3158129  43.1311353  24.4208361   6.5234055  44.1143323  24.2948573
   7.2537443  43.8528612  24.8556276   5.9141000  43.3772045  24.3350641
   4.6049352  42.2551186  24.8923024   3.8782515  42.1207151  24.2839516
   4.1896639  42.5628015  25.6979742   2.2227147  38.4763038  22.2456456
   2.8171638  38.2358774  21.5349764   2.2953730  37.7570169  22.8729992
   4.5298220  41.7829239  21.0199877   3.9697777  41.8522428  21.7931439
   3.9241723  41.6070224  20.2999373   6.1154238  58.4585753  23.7129832
   6.7532648  58.3392500  23.0093173   5.9975081  59.4066597  23.7717785
   2.9243944  58.4113181  23.6491357   2.5862456  58.2954246  22.7611892
   3.7933712  58.0104346  23.6292363   3.4063727  59.5648033  29.6077563
   3.3952368  59.1700831  28.7358066   3.5684367  58.8314105  30.2011334
   1.0527195  59.7261993  25.1458106   1.6490767  59.5018016  24.4315069
   1.1102167  58.9846739  25.7483554   5.6695506  56.1837207  20.7883041
   6.4558596  55.7656630  20.4373458   5.9334211  57.0883299  20.9564689
  11.0703934  56.1212440  21.6916019  11.8029106  55.5511657  21.9253849
  10.3143289  55.7334041  22.1322525   2.6880053  58.5439682  18.8879361
   2.3238261  58.0170303  19.5992283   3.5447169  58.1538151  18.7145847
   8.5929354  49.8334014  26.1510628   8.2612679  50.7029425  25.9271843
   7.9974967  49.5170298  26.8304658   8.4858017  54.5529100  23.2303978
   7.5774895  54.4844509  22.9362739   8.4345613  55.0301045  24.0585803
   2.5598883  55.9718746  31.1738875   1.7832217  56.5312666  31.1641740
   3.1989446  56.4575529  31.6953745  10.3519664  52.7545539  25.0081852
   9.7094044  53.0478072  24.3621646   9.8474592  52.6398459  25.8135048
   8.0059827  56.5008712  15.6967711   8.9177683  56.7336099  15.5215408
   7.4969474  57.0845756  15.1342789   6.2900595  60.9233340  29.3329003
   6.6983951  60.4815750  28.5883636   5.5677856  60.3485967  29.5863196
   2.6431665  55.8605947  26.7062560   3.4892860  56.2845360  26.8497209
   2.5830303  55.2039571  27.4001123   6.6129410  61.4834530  23.0881292
   5.9838272  61.6480245  22.3857360   6.2255072  61.8976140  23.8592256
  10.4918642  62.4188968  20.4425656   9.8069680  62.7987870  19.8922689
  10.5762491  63.0284295  21.1757604   5.7931110  53.5210315  28.3643734
   5.5492042  54.2752375  27.8278010   6.0691041  53.8995663  29.1990981
   7.7469573  60.0648927  27.0421000   7.9586468  60.7080687  26.3655381
   7.6999321  59.2311244  26.5742930   5.3495802  52.6766748  23.9457572
   4.4880281  52.9748001  24.2374309   5.3758237  52.8937147  23.0138604
   8.8615401  62.9420883  25.2143357   9.6832845  62.5401070  24.9326039
   8.8577804  62.8389117  26.1659473  16.9521394  59.2859631  21.5628328
  16.1985103  58.7167029  21.4072333  17.0868935  59.2522296  22.5098963
   1.7455323  51.6522492  31.4917660   2.4865036  52.2529646  31.4122122
   1.9773246  50.9100130  30.9335702   5.6912486  47.6803595  25.7681941
   5.3476755  48.5705237  25.6921052   6.0591448  47.4905253  24.9051526
   3.2409879  52.5161907  19.3339615   2.3851476  52.1268758  19.1545253
   3.6536831  52.5953868  18.4739400   4.7709026  50.0508251  23.7331174
   4.2673822  50.0138386  22.9198980   5.0639633  50.9600993  23.7927831
   1.0151912  50.1346980  22.7397356   1.8804909  49.9389789  22.3803246
   1.0829421  49.9057332  23.6666713  10.6297043  60.4244561  16.2107550
   9.8526485  60.0855721  15.7662712  11.3088524  60.4297184  15.5362515
   5.4449072  55.5439299  16.1014158   5.1399207  55.8585448  16.9524301
   6.3979514  55.6220718  16.1441491   8.8688350  59.8978542  22.8674158
   8.2112024  60.5877804  22.9554286   9.6728749  60.2874974  23.2108144
   7.6793808  58.2522915  20.9178100   8.1925690  58.8852907  21.4199809
   8.3295032  57.6524111  20.5521460   4.1574639  55.7272371  23.1636440
   3.2397201  55.9487318  23.0058128   4.5734783  55.8018681  22.3048147
   4.9409687  57.1263786  18.2939120   5.6881506  57.6385183  17.9846242
   5.2101276  56.8047839  19.1543514   7.3888524  54.1620903  20.2757910
   6.6511281  53.6498289  20.6068152   7.6415298  53.7221284  19.4641187
   7.4900151  46.9397155  20.8699679   7.7959028  46.0794518  20.5825594
   8.2152756  47.5314775  20.6698673   1.7621231  57.2350948  21.3775870
   1.8169841  56.2824784  21.3018347   0.9512433  57.3910387  21.8617168
   5.2987803  56.3169832  27.9681143   5.6537190  56.5441305  28.8275608
   5.9459934  56.6488209  27.3458398  11.0285540  59.4388268  18.6730472
  10.8903438  59.6289864  17.7451661  10.6721758  60.2007651  19.1298523
  11.0554919  61.5064795  23.6841743  11.4891426  61.4140084  24.5324797
  11.7686500  61.4822295  23.0461759  11.9170469  61.5488495  26.2174629
  12.1106359  62.4534306  26.4633904  11.8171087  61.0895914  27.0513214
   3.5706780  51.4346386  28.7164956   2.9234695  52.1336336  28.6229432
   4.3407795  51.8682530  29.0841204   6.9785578  61.6995238  31.7915509
   6.8271084  61.4705790  30.8745593   6.9690257  62.6565840  31.8046854
   3.7470914  59.2727151  26.7761776   4.6762974  59.4238310  26.6030743
   3.3261944  59.3611172  25.9210422   0.6991005  57.7947007  26.9485412
   1.4090624  57.1540200  26.9072030   0.6560314  58.0459902  27.8711593
   8.6895191  62.6953945  28.1005971   7.8021970  62.3579866  28.2232370
   9.2593743  61.9636976  28.3374736   5.3182775  52.4021796  21.2204241
   5.8151474  51.6491759  20.9005311   4.5469756  52.4386113  20.6547450
  13.1712532  58.1062162  22.8622532  13.1602408  58.9886877  22.4916466
  12.3029911  57.7533713  22.6677070   6.4012555  61.1593484  18.7942664
   5.4668834  61.2794946  18.6247369   6.5789224  60.2565950  18.5302674
   1.9017743  54.5439179  20.9475926   1.5315531  53.9910220  21.6356831
   2.3976836  53.9397313  20.3950926   9.7885107  57.0010803  19.3292699
  10.2545559  57.8338795  19.2553001  10.2392607  56.5355785  20.0337957
   7.7601769  49.3691390  23.3683600   6.8464849  49.5995617  23.5365807
   8.1894871  49.4529834  24.2197632   7.5308228  57.5581282  25.8683494
   6.8779678  57.8057189  25.2135947   7.9088608  56.7445420  25.5345971
   3.5795801  58.3001093  32.3549531   2.9036438  58.1995222  33.0251906
   4.4023435  58.1440307  32.8185528   1.7390470  49.2716162  25.1665615
   2.5616539  48.7976641  25.0444505   1.9828533  50.0506646  25.6664301
   4.5229827  53.0049570  16.3986849   4.7393441  53.8874208  16.0975677
   4.0423894  52.6135783  15.6692491   1.1225431  52.9537831  23.0238483
   1.1087000  52.0578924  22.6870781   1.8397859  52.9608495  23.6576769
   2.9751562  53.3875171  25.0691610   2.7169340  54.3092242  25.0675941
   2.4436602  52.9905606  25.7592074   3.3953518  49.5207122  21.4292773
   3.4175214  49.5846455  20.4744752   3.8121577  48.6811630  21.6233279
  13.7737142  59.2562381  19.4671995  14.2168288  58.5069707  19.0691119
  12.8963652  59.2472518  19.0845727  10.8064346  63.2592428  16.4765925
  11.3315670  63.5979701  15.7515245  10.7186699  62.3239444  16.2929059
  10.6156127  60.7417798  29.0949851  10.6654132  60.5767806  30.0365374
  10.5070051  59.8745057  28.7047732   7.9059890  56.7248726  30.4109158
   8.8069753  56.5855191  30.1193156   7.9807864  56.8903181  31.3507335
   2.2402695  54.1015581  29.2562344   1.3706005  54.3949147  28.9844933
   2.4762176  54.6856026  29.9769608  12.1174324  63.1614740  29.3391873
  11.8259133  63.5244720  30.1755334  11.5046456  62.4481748  29.1605205
  13.3170007  60.7267620  21.8594443  14.1516898  61.1657424  22.0232003
  13.4529135  60.2506273  21.0402689  10.3661513  58.2847355  27.8071931
  10.8415634  58.4775001  26.9990782   9.4427078  58.3406540  27.5615314
   4.9441729  50.3195198  26.7727765   5.4623673  51.0556225  26.4474253
   4.5896862  50.6259191  27.6074524   5.1954323  46.7395481  22.2928661
   5.4756077  46.0718670  22.9189088   5.9804930  46.9324576  21.7803325
   9.0663182  55.1613115  26.0400236  10.0180604  55.2611212  26.0612460
   8.8966632  54.3691383  26.5498321   7.0877561  52.2468698  26.2259637
   6.4927493  52.5273711  25.5306126   6.8027258  52.7362599  26.9976378
  11.5451259  58.3819234  25.1542536  11.5127579  57.4435235  25.3402220
  12.1551883  58.4603271  24.4208361  11.6945748  55.1730278  25.2000819
  11.1784796  54.3888734  25.0130748  12.5785696  54.8448994  25.3647339
   9.3556475  48.9171293  21.1596632   9.1581296  48.6086381  22.0439964
   9.9656180  49.6432932  21.2894562  17.3627809  59.4435241  24.2948573
  18.0931198  59.1820529  24.8556276  16.7534755  58.7063963  24.3350641
  15.4443106  57.5843104  24.8923024  14.7176270  57.4499069  24.2839516
  15.0290393  57.8919932  25.6979742   3.2673283  61.3033033  32.6570397
   4.1876292  61.4811632  32.8510443   3.2322866  60.3589079  32.5050096
   3.1839573  49.7202153  17.2868867   2.3740301  49.3749238  17.6624113
   3.8723990  49.4109697  17.8756478   5.1130121  48.7980200  18.9093163
   5.6661160  49.2175654  19.5683186   5.3500208  47.8715948  18.9516119
   1.1363221  54.7867274  34.6895927   1.0359948  55.7361631  34.6208018
   0.9184763  54.4585513  33.8171997   8.4908928  50.9080725  18.4171827
   7.9107598  51.5665529  18.0349880   8.2244861  50.0858070  18.0059245
   6.9412495  50.3085783  20.6193148   7.4412273  50.4202318  19.8107467
   7.5848103  50.0046836  21.2593956   0.9994491  58.2164413  33.5060989
   0.5161572  59.0164773  33.7124878   1.0855430  58.2272358  32.5528433
   7.2733806  53.0680816  17.4728176   6.3859662  53.3530466  17.2548370
   7.6887796  52.9074579  16.6255453  10.6248343  53.0927337  21.1882515
  11.4008733  53.5823789  21.4607132   9.8996477  53.5185391  21.6454384
  13.0620901  53.8054956  22.2456456  13.6565392  53.5650692  21.5349764
  13.1347485  53.0862086  22.8729992   7.2474830  58.5835352  17.6878466
   7.1910032  59.0403903  16.8486098   7.8003173  57.8226036  17.5101309
  11.0579636  54.3725084  18.5128585  10.8016570  53.9721719  19.3436793
  10.4332504  55.0868877  18.3878724  15.3691974  57.1121157  21.0199877
  14.8091532  57.1814346  21.7931439  14.7635477  56.9362141  20.2999373
   1.2905735  49.2748242  14.5616313   1.2784405  50.2190082  14.7184584
   2.1829157  49.0918387  14.2675775   5.1057854  45.8691019  18.8162250
   4.3390250  45.3149505  18.9618933   5.5168559  45.9412887  19.6776402
  19.4323108  65.1625932  26.1510628  19.1006433  66.0321343  25.9271843
  18.8368722  64.8462216  26.8304658  16.5306240  63.0095513  25.7681941
  16.1870510  63.8997155  25.6921052  16.8985203  62.8197171  24.9051526
  18.3293906  62.2689072  20.8699679  18.6352783  61.4086436  20.5825594
  19.0546511  62.8606692  20.6698673  18.5995524  64.6983308  23.3683600
  17.6858604  64.9287534  23.5365807  19.0288625  64.7821752  24.2197632
  14.2347272  64.8499039  21.4292773  14.2568969  64.9138373  20.4744752
  14.6515331  64.0103548  21.6233279  16.0348078  62.0687398  22.2928661
  16.3149831  61.4010587  22.9189088  16.8198685  62.2616494  21.7803325
  20.1950229  64.2463211  21.1596632  19.9975050  63.9378299  22.0439964
  20.8049935  64.9724850  21.2894562  14.0233328  65.0494071  17.2868867
  13.2134056  64.7041156  17.6624113  14.7117745  64.7401615  17.8756478
  15.9523876  64.1272118  18.9093163  16.5054914  64.5467571  19.5683186
  16.1893962  63.2007866  18.9516119  19.3302683  66.2372643  18.4171827
  18.7501352  66.8957447  18.0349880  19.0638616  65.4149988  18.0059245
  17.7806249  65.6377701  20.6193148  18.2806028  65.7494235  19.8107467
  18.4241857  65.3338754  21.2593956  15.9451609  61.1982936  18.8162250
  15.1784005  60.6441423  18.9618933  16.3562314  61.2704805  19.6776402
   1.2780571  24.8384945  16.0637179   0.9865379  25.2014925  16.9000640
   0.6652702  24.1251953  15.8850511   6.1154239  35.4647876  10.4375139
   6.7532649  35.3454623   9.7338479   5.9975082  36.4128720  10.4963091
   2.9243946  35.4175304  10.3736664   2.5862457  35.3016368   9.4857199
   3.7933714  35.0166469  10.3537670   3.4063728  36.5710155  16.3322869
   3.3952369  36.1762954  15.4603373   3.5684368  35.8376228  16.9256641
   1.0527196  36.7324116  11.8703413   1.6490769  36.5080138  11.1560376
   1.1102168  35.9908861  12.4728861   5.6695508  33.1899329   7.5128347
   6.4558597  32.7718753   7.1618764   5.9334212  34.0945422   7.6809996
  11.0703935  33.1274563   8.4161326  11.8029107  32.5573779   8.6499155
  10.3143291  32.7396163   8.8567831   8.5929355  26.8396137  12.8755934
   8.2612680  27.7091548  12.6517149   7.9974969  26.5232421  13.5549965
   5.0860875  39.0408683  12.2751847   4.7861598  39.9433722  12.1667654
   4.7411934  38.7740866  13.1273000   8.4858019  31.5591223   9.9549284
   7.5774896  31.4906631   9.6608045   8.4345614  32.0363168  10.7831110
   2.5598884  32.9780869  17.8984182   1.7832218  33.5374789  17.8887046
   3.1989447  33.4637652  18.4199052  10.3519665  29.7607661  11.7327158
   9.7094045  30.0540195  11.0866953   9.8474593  29.6460582  12.5380355
   6.2900596  37.9295462  16.0574310   6.6983952  37.4877873  15.3128942
   5.5677858  37.3548090  16.3108503   2.6431666  32.8668069  13.4307867
   3.4892861  33.2907483  13.5742516   2.5830304  32.2101693  14.1246430
   6.6129411  38.4896653   9.8126599   5.9838273  38.6542367   9.1102667
   6.2255073  38.9038263  10.5837563  10.4918643  39.4251091   7.1670963
   9.8069681  39.8049992   6.6167996  10.5762492  40.0346417   7.9002910
   5.7931112  30.5272437  15.0889041   5.5492043  31.2814498  14.5523316
   6.0691042  30.9057785  15.9236288   7.7469574  37.0711050  13.7666306
   7.9586470  37.7142810  13.0900687   7.6999323  36.2373366  13.2988236
   5.3495803  29.6828871  10.6702878   4.4880282  29.9810124  10.9619616
   5.3758238  29.8999269   9.7383911   8.8615402  39.9483005  11.9388664
   9.6832846  39.5463193  11.6571345   8.8577805  39.8451239  12.8904779
   2.6272006  39.4967049  14.0949374   2.6916438  39.9587456  14.9307546
   1.9182930  38.8664413  14.2231684  16.9521395  36.2921754   8.2873635
  16.1985104  35.7229152   8.1317639  17.0868937  36.2584418   9.2344270
   1.7455324  28.6584615  18.2162966   2.4865037  29.2591768  18.1367429
   1.9773247  27.9162253  17.6581009   3.9688500  41.7858723  18.0928696
   3.5252354  40.9995101  17.7749601   4.6305713  41.9737873  17.4272587
   6.0669738  42.0661523  16.1210098   6.0488213  42.8870404  15.6290367
   6.9889658  41.9415598  16.3460239   2.5242792  39.5805652  16.9633606
   3.0571129  38.8193940  16.7332914   1.9956873  39.2879304  17.7057761
   5.6912487  24.6865718  12.4927248   5.3476756  25.5767360  12.4166358
   6.0591450  24.4967376  11.6296833  10.6297044  37.4306684   2.9352856
   9.8526487  37.0917843   2.4908019  11.3088525  37.4359307   2.2607822
   8.8688351  36.9040665   9.5919464   8.2112025  37.5939926   9.6799593
   9.6728750  37.2937097   9.9353451   7.6793810  35.2585038   7.6423406
   8.1925691  35.8915029   8.1445116   8.3295033  34.6586233   7.2766766
   4.1574640  32.7334493   9.8881747   3.2397202  32.9549440   9.7303435
   4.5734784  32.8080804   9.0293454   8.4455606  40.2391039   5.7702549
   7.9917933  39.3981949   5.8267739   7.8149572  40.8752437   6.1077329
   6.8888545  42.0767536   6.7052367   7.1811519  42.6372593   5.9864733
   7.3987166  42.3696097   7.4605526   1.7621232  34.2413070   8.1021177
   1.8169842  33.2886907   8.0263653   0.9512434  34.3972509   8.5862475
   5.2987804  33.3231954  14.6926449   5.6537192  33.5503428  15.5520915
   5.9459935  33.6550331  14.0703705  11.0285541  36.4450390   5.3975778
  10.8903440  36.6351986   4.4696968  10.6721760  37.2069773   5.8543830
  11.0554921  38.5126917  10.4087050  11.4891427  38.4202206  11.2570104
  11.7686501  38.4884418   9.7707066   4.7882815  42.1129011  11.9420151
   4.8419838  42.6819948  12.7097866   3.9197597  42.2830896  11.5774188
  11.9170470  38.5550618  12.9419935  12.1106360  39.4596428  13.1879210
  11.8171088  38.0958037  13.7758520   3.5706781  28.4408509  15.4410263
   2.9234696  29.1398458  15.3474739   4.3407796  28.8744652  15.8086511
   6.9785579  38.7057361  18.5160816   6.8271085  38.4767912  17.5990900
   6.9690258  39.6627962  18.5292161   3.7470915  36.2789273  13.5007082
   4.6762975  36.4300433  13.3276050   3.3261945  36.3673294  12.6455729
   2.5459247  40.3039938  11.2705620   2.4070333  39.9358722  12.1431558
   1.7573843  40.8187577  11.0989578   4.0964462  39.6821541   8.6594458
   3.7614295  39.6422311   9.5552108   3.5968408  39.0166256   8.1864868
   0.6991007  34.8009130  13.6730719   1.4090625  34.1602322  13.6317337
   0.6560315  35.0522025  14.5956899   8.6877785  41.7376483  16.5937298
   8.6290332  41.0535703  15.9267881   9.0897304  42.4795473  16.1417924
   8.6895193  39.7016067  14.8251277   7.8021971  39.3641989  14.9477676
   9.2593744  38.9699098  15.0620043  13.1712533  35.1124285   9.5867839
  13.1602409  35.9949000   9.2161772  12.3029913  34.7595835   9.3922376
   4.6795030  44.2604354  13.9470679   5.3923002  44.8951818  13.8746581
   4.1885058  44.3568220  13.1310681   6.4012557  38.1655606   5.5187971
   5.4668835  38.2857069   5.3492675   6.5789225  37.2628073   5.2547981
   9.7885108  34.0072926   6.0538005  10.2545560  34.8400917   5.9798308
  10.2392608  33.5417907   6.7583264   7.7601771  26.3753513  10.0928906
   6.8464850  26.6057739  10.2611113   8.1894872  26.4591957  10.9442939
   7.5308229  34.5643404  12.5928801   6.8779679  34.8119312  11.9381253
   7.9088609  33.7507543  12.2591278   3.5795802  35.3063216  19.0794838
   2.9036439  35.2057345  19.7497213   4.4023436  35.1502429  19.5430835
   2.3218585  46.6130143  13.3152454   2.8736893  46.7761765  14.0801539
   2.6624778  47.2034581  12.6432478   7.1729459  41.4391401  19.1701108
   7.7169363  42.0521359  18.6756063   6.5916304  41.9970979  19.6868121
   5.4586972  44.5612119  10.3016136   5.3338112  43.7601858   9.7927081
   6.1166063  45.0558312   9.8130106   7.5221881  42.3621139  11.9295686
   6.5752216  42.2426490  11.8574013   7.8704654  41.4743637  12.0121947
   4.5268314  42.1573855   8.1300038   4.3793276  41.2290562   8.3107608
   5.3521807  42.1793946   7.6457113   8.1302436  42.9802414   9.2164911
   9.0548983  42.7745275   9.0789362   7.9617739  42.7318815  10.1254252
   1.7390471  26.2778285  11.8910921   2.5616540  25.8038763  11.7689812
   1.9828534  27.0568769  12.3909608   2.9751563  30.3937294  11.7936917
   2.7169341  31.3154365  11.7921247   2.4436604  29.9967728  12.4837381
  13.7737143  36.2624504   6.1917302  14.2168289  35.5131829   5.7936425
  12.8963653  36.2534640   5.8091034  10.8064348  40.2654551   3.2011231
  11.3315672  40.6041824   2.4760551  10.7186700  39.3301566   3.0174366
   2.4684396  44.1788625  15.3301108   2.7771523  43.9337771  16.2023808
   3.2659878  44.3835263  14.8419978  10.4958254  40.8987455  18.5062429
   9.7053797  40.8811593  17.9666929  10.2591608  41.4375748  19.2611466
  10.6156129  37.7479921  15.8195158  10.6654134  37.5829928  16.7610681
  10.5070052  36.8807180  15.4293039   7.9059891  33.7310849  17.1354465
   8.8069754  33.5917314  16.8438462   7.9807866  33.8965304  18.0752642
   2.2402696  31.1077704  15.9807651   1.3706006  31.4011270  15.7090239
   2.4762177  31.6918149  16.7014914  12.1174326  40.1676862  16.0637179
  11.8259134  40.5306843  16.9000640  11.5046457  39.4543871  15.8850511
  13.3170008  37.7329742   8.5839750  14.1516899  38.1719546   8.7477310
  13.4529137  37.2568395   7.7647995  10.3661514  35.2909477  14.5317237
  10.8415635  35.4837123  13.7236089   9.4427079  35.3468663  14.2860621
   4.9441730  27.3257321  13.4973071   5.4623674  28.0618348  13.1719560
   4.5896863  27.6321314  14.3319830   9.0663183  32.1675237  12.7645543
  10.0180606  32.2673335  12.7857767   8.8966633  31.3753506  13.2743627
   7.0877562  29.2530820  12.9504944   6.4927494  29.5335833  12.2551432
   6.8027259  29.7424721  13.7221685  11.5451261  35.3881357  11.8787843
  11.5127581  34.4497358  12.0647526  12.1551884  35.4665394  11.1453667
  11.6945749  32.1792400  11.9246126  11.1784798  31.3950857  11.7376055
  12.5785698  31.8511117  12.0892645  17.3627810  36.4497364  11.0193879
  18.0931199  36.1882652  11.5801583  16.7534756  35.7126086  11.0595947
  15.4443108  34.5905226  11.6168331  14.7176271  34.4561191  11.0084822
  15.0290394  34.8982055  12.4225049   3.2673284  38.3095156  19.3815704
   4.1876293  38.4873755  19.5755750   3.2322867  37.3651201  19.2295403
   1.1363222  31.7929396  21.4141234   1.0359949  32.7423753  21.3453325
   0.9184764  31.4647635  20.5417304   0.9994492  35.2226535  20.2306295
   0.5161574  36.0226895  20.4370184   1.0855431  35.2334480  19.2773739
  10.6248344  30.0989459   7.9127822  11.4008734  30.5885912   8.1852438
   9.8996478  30.5247513   8.3699691  13.0620902  30.8117079   8.9701762
  13.6565393  30.5712814   8.2595070  13.1347486  30.0924209   9.5975298
  11.0579637  31.3787206   5.2373892  10.8016572  30.9783842   6.0682100
  10.4332505  32.0931000   5.1124031  15.3691975  34.1183279   7.7445183
  14.8091533  34.1876469   8.5176745  14.7635479  33.9424264   7.0244680
   5.2955518  39.0851167  21.0329864   6.1646678  39.2591820  20.6716499
   4.8162269  39.9045584  20.9105594  16.9547994  50.7939793  10.4375139
  17.5926404  50.6746541   9.7338479  16.8368837  51.7420637  10.4963091
  13.7637700  50.7467221  10.3736664  13.4256212  50.6308286   9.4857199
  14.6327468  50.3458386  10.3537670  14.2457483  51.9002073  16.3322869
  14.2346124  51.5054871  15.4603373  14.4078122  51.1668146  16.9256641
  10.9664744  54.6839185  15.2802053  10.6754610  55.5884816  15.1648720
  11.6021728  54.7255713  15.9946123  11.8920951  52.0616033  11.8703413
  12.4884523  51.8372056  11.1560376  11.9495923  51.3200779  12.4728861
  16.5089262  48.5191247   7.5128347  17.2952351  48.1010670   7.1618764
  16.7727967  49.4237339   7.6809996  21.9097689  48.4566480   8.4161326
  22.6422861  47.8865697   8.6499155  21.1537045  48.0688081   8.8567831
  13.5273809  50.8793722   5.6124668  13.1632016  50.3524343   6.3237590
  14.3840925  50.4892191   5.4391154  19.4323110  42.1688054  12.8755934
  19.1006434  43.0383465  12.6517149  18.8368723  41.8524338  13.5549965
  15.9254629  54.3700600  12.2751847  15.6255352  55.2725639  12.1667654
  15.5805689  54.1032784  13.1273000  19.3251773  46.8883141   9.9549284
  18.4168650  46.8198549   9.6608045  19.2739369  47.3655086  10.7831110
  13.3992639  48.3072786  17.8984182  12.6225973  48.8666706  17.8887046
  14.0383202  48.7929569  18.4199052  21.1913419  45.0899579  11.7327158
  20.5487800  45.3832112  11.0866953  20.6868348  44.9752499  12.5380355
  18.8453583  48.8362752   2.4213017  19.7571439  49.0690139   2.2460715
  18.3363230  49.4199796   1.8588096  11.6539011  51.1158240  17.4602149
  12.3953695  51.6543284  17.1836972  10.9475997  51.7424528  17.6173700
  17.1294351  53.2587380  16.0574310  17.5377707  52.8169791  15.3128942
  16.4071612  52.6840008  16.3108503  13.4825421  48.1959987  13.4307867
  14.3286616  48.6199400  13.5742516  13.4224058  47.5393611  14.1246430
  17.4523165  53.8188571   9.8126599  16.8232028  53.9834285   9.1102667
  17.0648827  54.2330180  10.5837563  21.3312397  54.7543009   7.1670963
  20.6463435  55.1341910   6.6167996  21.4156247  55.3638335   7.9002910
  16.6324866  45.8564355  15.0889041  16.3885798  46.6106416  14.5523316
  16.9084797  46.2349703  15.9236288  18.5863329  52.4002968  13.7666306
  18.7980224  53.0434727  13.0900687  18.5393077  51.5665284  13.2988236
  16.1889558  45.0120788  10.6702878  15.3274037  45.3102042  10.9619616
  16.2151992  45.2291187   9.7383911   9.8975208  53.1034460  10.0156447
  10.4676565  53.5321729   9.3773932  10.4883320  52.8217045  10.7140633
  10.3900375  48.2697888  18.2617459   9.7599035  48.9514169  18.4952855
  10.2836463  48.1580969  17.3170597  19.7009157  55.2774923  11.9388664
  20.5226601  54.8755110  11.6571345  19.6971560  55.1743157  12.8904779
  13.4665760  54.8258966  14.0949374  13.5310193  55.2879373  14.9307546
  12.7576684  54.1956331  14.2231684   3.9683050  48.1900174  11.6198374
   4.2191089  49.0747184  11.8855949   4.5042599  48.0104776  10.8473465
  27.7915150  51.6213671   8.2873635  27.0378858  51.0521070   8.1317639
  27.9262691  51.5876336   9.2344270   9.6681118  42.5718654  20.6242710
   9.2748063  42.0184852  21.2990354  10.4847258  42.8829232  21.0149227
  12.5849079  43.9876533  18.2162966  13.3258792  44.5883686  18.1367429
  12.8167001  43.2454170  17.6581009   7.7290417  49.1732900  16.4941196
   7.6143932  48.2718157  16.7948295   6.8734934  49.4196597  16.1426012
  14.8082254  57.1150640  18.0928696  14.3646108  56.3287019  17.7749601
  15.4699468  57.3029791  17.4272587  16.9063492  57.3953440  16.1210098
  16.8881968  58.2162321  15.6290367  17.8283412  57.2707515  16.3460239
  13.3636547  54.9097570  16.9633606  13.8964883  54.1485858  16.7332914
  12.8350628  54.6171221  17.7057761  16.5306241  40.0157636  12.4927248
  16.1870511  40.9059277  12.4166358  16.8985204  39.8259293  11.6296833
  14.0803635  44.8515948   6.0584921  13.2245232  44.4622798   5.8790560
  14.4930587  44.9307908   5.1984707  15.6102782  42.3862291  10.4576481
  15.1067577  42.3492426   9.6444286  15.9033389  43.2955033  10.5173138
  11.8545668  42.4701020   9.4642663  12.7198665  42.2743829   9.1048552
  11.9223177  42.2411372  10.3912020  21.4690798  52.7598601   2.9352856
  20.6920241  52.4209761   2.4908019  22.1482279  52.7651225   2.2607822
  16.2842827  47.8793339   2.8259464  15.9792963  48.1939488   3.6769607
  17.2373270  47.9574759   2.8686797  19.7082105  52.2332583   9.5919464
  19.0505780  52.9231844   9.6799593  20.5122504  52.6229015   9.9353451
   9.4607987  44.7003228   6.8359030  10.0351739  44.4778410   6.1032223
  10.0478969  44.7691923   7.5887631  18.5187564  50.5876955   7.6423406
  19.0319446  51.2206947   8.1445116  19.1688788  49.9878151   7.2766766
  11.7630655  41.5744477   5.5634099  11.1095067  41.2593495   4.9390714
  11.7211129  40.9520218   6.2893922  14.9968395  48.0626411   9.8881747
  14.0790956  48.2841358   9.7303435  15.4128539  48.1372721   9.0293454
  15.7803443  49.4617827   5.0184427  16.5275262  49.9739224   4.7091549
  16.0495032  49.1401879   5.8788821  19.2849360  55.5682957   5.7702549
  18.8311687  54.7273867   5.8267739  18.6543327  56.2044355   6.1077329
  18.2282280  46.4974943   7.0003216  17.4905037  45.9852329   7.3313459
  18.4809053  46.0575324   6.1886493  17.7282300  57.4059453   6.7052367
  18.0205274  57.9664511   5.9864733  18.2380920  57.6988014   7.4605526
  18.3293907  39.2751195   7.5944986  18.6352784  38.4148558   7.3070901
  19.0546512  39.8668815   7.3943979  12.6014987  49.5704988   8.1021177
  12.6563597  48.6178824   8.0263653  11.7906189  49.7264427   8.5862475
  16.1381558  48.6523872  14.6926449  16.4930946  48.8795345  15.5520915
  16.7853690  48.9842249  14.0703705  21.8679295  51.7742308   5.3975778
  21.7297194  51.9643904   4.4696968  21.5115514  52.5361691   5.8543830
  10.0321422  45.7600403  11.4772790  10.6720801  45.6189162  10.7795754
   9.1998952  45.4734917  11.1011392  21.8948675  53.8418835  10.4087050
  22.3285182  53.7494124  11.2570104  22.6080256  53.8176335   9.7707066
  15.6276570  57.4420929  11.9420151  15.6813592  58.0111865  12.7097866
  14.7591351  57.6122814  11.5774188   8.5074963  47.1438485  13.4244602
   9.1798017  46.9355847  12.7757251   7.6804750  46.9460571  12.9849834
  22.7564225  53.8842536  12.9419935  22.9500115  54.7888346  13.1879210
  22.6564843  53.4249955  13.7758520  14.4100535  43.7700426  15.4410263
  13.7628450  44.4690376  15.3474739  15.1801551  44.2036570  15.8086511
  17.8179333  54.0349278  18.5160816  17.6664840  53.8059830  17.5990900
  17.8084013  54.9919880  18.5292161  14.5864670  51.6081191  13.5007082
  15.5156730  51.7592351  13.3276050  14.1655700  51.6965212  12.6455729
  13.3853001  55.6331856  11.2705620  13.2464087  55.2650640  12.1431558
  12.5967598  56.1479495  11.0989578  14.9358217  55.0113458   8.6594458
  14.6008049  54.9714228   9.5552108  14.4362162  54.3458174   8.1864868
   8.9102461  50.4181088  14.1847039   8.7722259  49.6861327  14.7858578
   9.8207384  50.3289988  13.9031227  11.5384761  50.1301048  13.6730719
  12.2484380  49.4894240  13.6317337  11.4954069  50.3813942  14.5956899
  19.5271540  57.0668401  16.5937298  19.4684086  56.3827621  15.9267881
  19.9291058  57.8087391  16.1417924  10.2513695  47.1166265  15.4926358
   9.7151052  46.6657004  16.1447954   9.6630404  47.2512174  14.7496822
  19.5288947  55.0307985  14.8251277  18.6415726  54.6933907  14.9477676
  20.0987498  54.2991016  15.0620043   5.9852816  46.2522273  12.5779353
   5.9011005  45.6447943  11.8429762   5.1635523  46.7431291  12.5788849
  16.1576530  44.7375837   7.9449548  16.6545230  43.9845799   7.6250618
  15.3863512  44.7740153   7.3792757  24.0106288  50.4416202   9.5867839
  23.9996164  51.3240918   9.2161772  23.1423667  50.0887753   9.3922376
  15.5188784  59.5896271  13.9470679  16.2316756  60.2243736  13.8746581
  15.0278813  59.6860137  13.1310681  17.2406311  53.4947524   5.5187971
  16.3062590  53.6148986   5.3492675  17.4182979  52.5919991   5.2547981
  12.7411499  46.8793220   7.6721232  12.3709287  46.3264260   8.3602138
  13.2370592  46.2751353   7.1196232  20.6278862  49.3364843   6.0538005
  21.0939315  50.1692835   5.9798308  21.0786363  48.8709825   6.7583264
  10.5700698  57.3390715  14.7676250  11.2710157  57.9727198  14.9205644
  10.0995813  57.6805446  14.0071889  18.5995525  41.7045430  10.0928906
  17.6858605  41.9349657  10.2611113  19.0288627  41.7883874  10.9442939
  18.3701984  49.8935322  12.5928801  17.7173434  50.1411230  11.9381253
  18.7482364  49.0799460  12.2591278  14.4189557  50.6355133  19.0794838
  13.7430194  50.5349263  19.7497213  15.2417191  50.4794347  19.5430835
  13.1612340  61.9422061  13.3152454  13.7130648  62.1053682  14.0801539
  13.5018533  62.5326499  12.6432478   8.1376833  44.2897210  13.9174338
   8.2018159  45.1512041  13.5051736   8.0743953  43.6771212  13.1846697
   7.6129105  46.3620343  17.5647373   8.2401144  45.9797420  18.1784897
   6.7557024  46.1434545  17.9303065  18.0123214  56.7683318  19.1701108
  18.5563118  57.3813276  18.6756063  17.4310059  57.3262897  19.6868121
  16.2980727  59.8904036  10.3016136  16.1731866  59.0893776   9.7927081
  16.9559818  60.3850230   9.8130106   7.9188895  46.2452769   9.4793276
   7.1975481  46.8588736   9.3400749   8.7082151  46.7810534   9.4009922
  18.3615635  57.6913056  11.9295686  17.4145971  57.5718407  11.8574013
  18.7098408  56.8035554  12.0121947  10.7215209  43.5807195  15.7533928
  11.2449610  43.8269492  16.5160237  10.5027542  44.4127230  15.3337065
  15.3662068  57.4865773   8.1300038  15.2187031  56.5582480   8.3107608
  16.1915562  57.5085863   7.6457113  18.9696190  58.3094331   9.2164911
  19.8942738  58.1037193   9.0789362  18.8011494  58.0610732  10.1254252
  11.9267754  44.5220890  13.4383598  11.5864574  43.7228703  13.8404278
  11.2206760  44.8222601  12.8660431  12.5784225  41.6070203  11.8910921
  13.4010295  41.1330681  11.7689812  12.8222289  42.3860686  12.3909608
  15.3623583  45.3403610   3.1232155  15.5787197  46.2228248   2.8220983
  14.8817650  44.9489824   2.3937797  10.1022804  48.2989323   9.7002900
   9.9567385  48.6129626  10.5927181   9.6248008  48.9174224   9.1473799
  11.9619187  45.2891871   9.7483789  11.9480756  44.3932965   9.4116087
  12.6791615  45.2962535  10.3822075  13.8145318  45.7229212  11.7936917
  13.5563096  46.6446282  11.7921247  13.2830358  45.3259646  12.4837381
  11.3656083  44.1706252   5.0171360  11.4871994  43.2422898   5.2162247
  11.0758125  44.1844938   4.1049675  14.2347273  41.8561162   8.1538079
  14.2568970  41.9200495   7.1990059  14.6515332  41.0165671   8.3478586
  24.6130898  51.5916422   6.1917302  25.0562044  50.8423747   5.7936425
  23.7357408  51.5826558   5.8091034   5.3634488  49.9664564  15.5320718
   4.6216224  50.1147199  16.1185348   5.0427232  50.2272830  14.6687467
  21.6458102  55.5946469   3.2011231  22.1709426  55.9333741   2.4760551
  21.5580455  54.6593484   3.0174366  13.3078151  59.5080542  15.3301108
  13.6165277  59.2629689  16.2023808  14.1053633  59.7127181  14.8419978
  10.8497163  45.6838249  19.2261292  10.8985318  46.5600372  18.8439062
  11.3919677  45.1415642  18.6532935  21.3352008  56.2279372  18.5062429
  20.5447552  56.2103511  17.9666929  21.0985363  56.7667666  19.2611466
  21.4549883  53.0771839  15.8195158  21.5047888  52.9121846  16.7610681
  21.3463807  52.2099098  15.4293039  18.7453646  49.0602767  17.1354465
  19.6463508  48.9209232  16.8438462  18.8201620  49.2257221  18.0752642
  13.0796451  46.4369621  15.9807651  12.2099760  46.7303187  15.7090239
  13.3155931  47.0210066  16.7014914  22.9568080  55.4968780  16.0637179
  22.6652888  55.8598761  16.9000640  22.3440211  54.7835788  15.8850511
  24.1563762  53.0621660   8.5839750  24.9910654  53.5011464   8.7477310
  24.2922891  52.5860313   7.7647995  21.2055268  50.6201395  14.5317237
  21.6809390  50.8129041  13.7236089  20.2820834  50.6760581  14.2860621
  15.7835485  42.6549238  13.4973071  16.3017429  43.3910265  13.1719560
  15.4290618  42.9613232  14.3319830  16.0348079  39.0749521   9.0173968
  16.3149833  38.4072710   9.6434394  16.8198686  39.2678616   8.5048632
  19.9056937  47.4967155  12.7645543  20.8574360  47.5965253  12.7857767
  19.7360388  46.7045423  13.2743627  17.9271317  44.5822738  12.9504944
  17.3321249  44.8627751  12.2551432  17.6421013  45.0716639  13.7221685
  22.3845015  50.7173275  11.8787843  22.3521335  49.7789275  12.0647526
  22.9945639  50.7957311  11.1453667  22.5339504  47.5084318  11.9246126
  22.0178552  46.7242775  11.7376055  23.4179452  47.1803035  12.0892645
  20.1950231  41.2525334   7.8841938  19.9975052  40.9440422   8.7685270
  20.8049936  41.9786972   8.0139868  28.2021565  51.7789281  11.0193879
  28.9324953  51.5174570  11.5801583  27.5928510  51.0418003  11.0595947
  26.2836862  49.9197144  11.6168331  25.5570026  49.7853109  11.0084822
  25.8684149  50.2273973  12.4225049  14.1067038  53.6387074  19.3815704
  15.0270048  53.8165673  19.5755750  14.0716622  52.6943119  19.2295403
   7.1029111  51.5488108  12.0238485   7.3215121  52.4805216  12.0426519
   7.5154885  51.1896083  12.8093289  14.0233329  42.0556194   4.0114173
  13.2134057  41.7103279   4.3869419  14.7117746  41.7463737   4.6001785
  15.9523877  41.1334240   5.6338470  16.5054916  41.5529694   6.2928493
  16.1893963  40.2069989   5.6761426  11.9756976  47.1221314  21.4141234
  11.8753703  48.0715671  21.3453325  11.7578518  46.7939553  20.5417304
  19.3302684  43.2434766   5.1417134  18.7501353  43.9019570   4.7595186
  19.0638617  42.4212110   4.7304552  17.7806251  42.6439823   7.3438454
  18.2806029  42.7556358   6.5352773  18.4241859  42.3400876   7.9839263
  11.8388246  50.5518453  20.2306295  11.3555328  51.3518813  20.4370184
  11.9249185  50.5626398  19.2773739   7.7661584  54.4422988  12.2674729
   8.7204837  54.4106930  12.2004661   7.5674107  53.9813611  13.0824955
   8.3560966  53.0124104  14.8345527   9.1753855  53.5068182  14.8580364
   8.6297774  52.0956072  14.8063094  18.1127562  45.4034856   4.1973482
  17.2253417  45.6884507   3.9793677  18.5281551  45.2428619   3.3500759
  21.4642098  45.4281377   7.9127822  22.2402488  45.9177829   8.1852438
  20.7390233  45.8539431   8.3699691  23.9014657  46.1408996   8.9701762
  24.4959148  45.9004732   8.2595070  23.9741241  45.4216127   9.5975298
  18.0868586  50.9189392   4.4123772  18.0303787  51.3757943   3.5731405
  18.6396928  50.1580077   4.2346615  21.8973392  46.7079124   5.2373892
  21.6410326  46.3075759   6.0682100  21.2726260  47.4222918   5.1124031
  26.2085730  49.4475197   7.7445183  25.6485288  49.5168386   8.5176745
  25.6029233  49.2716182   7.0244680   3.6095880  47.3462238  15.5337724
   4.2554744  46.8361192  16.0224949   3.4013031  48.0830919  16.1081149
  16.1349272  54.4143085  21.0329864  17.0040432  54.5883737  20.6716499
  15.6556024  55.2337502  20.9105594  12.1299491  41.6102282   1.2861620
  12.1178161  42.5544122   1.4429891  13.0222913  41.4272428   0.9921081
  15.9451610  38.2045059   5.5407557  15.1784006  37.6503546   5.6864239
  16.3562315  38.2766928   6.4021708   7.9493371  44.4929855  19.6312738
   8.8124833  44.1366659  19.8416063   7.3758782  44.1543749  20.3188142
  27.7941748  66.1231711  10.4375139  28.4320158  66.0038458   9.7338479
  27.6762591  67.0712555  10.4963091  24.6031454  66.0759139  10.3736664
  24.2649966  65.9600204   9.4857199  25.4721223  65.6750304  10.3537670
  25.0851237  67.2293991  16.3322869  25.0739878  66.8346789  15.4603373
  25.2471877  66.4960063  16.9256641  22.7314705  67.3907951  11.8703413
  23.3278278  67.1663974  11.1560376  22.7889677  66.6492697  12.4728861
  27.3483017  63.8483165   7.5128347  28.1346106  63.4302588   7.1618764
  27.6121721  64.7529257   7.6809996  32.7491444  63.7858398   8.4161326
  33.4816616  63.2157615   8.6499155  31.9930800  63.3979998   8.8567831
  30.2716864  57.4979972  12.8755934  29.9400189  58.3675383  12.6517149
  29.6762478  57.1816256  13.5549965  30.1645527  62.2175058   9.9549284
  29.2562405  62.1490467   9.6608045  30.1133123  62.6947003  10.7831110
  24.2386393  63.6364704  17.8984182  23.4619727  64.1958624  17.8887046
  24.8776956  64.1221487  18.4199052  32.0307174  60.4191497  11.7327158
  31.3881554  60.7124030  11.0866953  31.5262102  60.3044417  12.5380355
  22.4932766  66.4450157  17.4602149  23.2347450  66.9835201  17.1836972
  21.7869751  67.0716446  17.6173700  27.9688105  68.5879298  16.0574310
  28.3771461  68.1461708  15.3128942  27.2465367  68.0131925  16.3108503
  24.3219175  63.5251904  13.4307867  25.1680370  63.9491318  13.5742516
  24.2617813  62.8685529  14.1246430  28.2916920  69.1480488   9.8126599
  27.6625782  69.3126202   9.1102667  27.9042582  69.5622098  10.5837563
  27.4718621  61.1856273  15.0889041  27.2279552  61.9398333  14.5523316
  27.7478551  61.5641620  15.9236288  29.4257083  67.7294885  13.7666306
  29.6373979  68.3726645  13.0900687  29.3786832  66.8957202  13.2988236
  27.0283312  60.3412706  10.6702878  26.1667791  60.6393959  10.9619616
  27.0545747  60.5583105   9.7383911  21.2294129  63.5989805  18.2617459
  20.5992790  64.2806086  18.4952855  21.1230217  63.4872887  17.3170597
  30.5402911  70.6066841  11.9388664  31.3620355  70.2047028  11.6571345
  30.5365314  70.5035075  12.8904779  14.8076805  63.5192092  11.6198374
  15.0584843  64.4039102  11.8855949  15.3436353  63.3396693  10.8473465
  23.4242833  59.3168450  18.2162966  24.1652546  59.9175603  18.1367429
  23.6560756  58.5746088  17.6581009  18.5684171  64.5024818  16.4941196
  18.4537686  63.6010075  16.7948295  17.7128689  64.7488514  16.1426012
  27.3699996  55.3449553  12.4927248  27.0264265  56.2351195  12.4166358
  27.7378959  55.1551211  11.6296833  24.9197390  60.1807865   6.0584921
  24.0638986  59.7914716   5.8790560  25.3324342  60.2599826   5.1984707
  26.4496536  57.7154208  10.4576481  25.9461332  57.6784344   9.6444286
  26.7427143  58.6246951  10.5173138  22.6939422  57.7992938   9.4642663
  23.5592419  57.6035747   9.1048552  22.7616931  57.5703290  10.3912020
  30.5475860  67.5624500   9.5919464  29.8899534  68.2523762   9.6799593
  31.3516259  67.9520932   9.9353451  20.3001741  60.0295146   6.8359030
  20.8745493  59.8070328   6.1032223  20.8872724  60.0983841   7.5887631
  22.6024409  56.9036395   5.5634099  21.9488821  56.5885412   4.9390714
  22.5604883  56.2812135   6.2893922  25.8362149  63.3918329   9.8881747
  24.9184711  63.6133276   9.7303435  26.2522293  63.4664639   9.0293454
  29.0676034  61.8266860   7.0003216  28.3298791  61.3144247   7.3313459
  29.3202808  61.3867242   6.1886493  29.1687662  54.6043112   7.5944986
  29.4746538  53.7440476   7.3070901  29.8940266  55.1960733   7.3943979
  23.4408741  64.8996906   8.1021177  23.4957351  63.9470742   8.0263653
  22.6299943  65.0556345   8.5862475  26.9775313  63.9815790  14.6926449
  27.3324701  64.2087263  15.5520915  27.6247444  64.3134167  14.0703705
  20.8715176  61.0892321  11.4772790  21.5114555  60.9481080  10.7795754
  20.0392707  60.8026834  11.1011392  19.3468718  62.4730403  13.4244602
  20.0191771  62.2647765  12.7757251  18.5198504  62.2752489  12.9849834
  33.5957979  69.2134453  12.9419935  33.7893869  70.1180264  13.1879210
  33.4958597  68.7541872  13.7758520  25.2494290  59.0992344  15.4410263
  24.6022205  59.7982294  15.3474739  26.0195305  59.5328488  15.8086511
  28.6573088  69.3641196  18.5160816  28.5058594  69.1351748  17.5990900
  28.6477767  70.3211797  18.5292161  25.4258424  66.9373109  13.5007082
  26.3550484  67.0884268  13.3276050  25.0049454  67.0257130  12.6455729
  19.7496215  65.7473006  14.1847039  19.6116013  65.0153245  14.7858578
  20.6601139  65.6581906  13.9031227  22.3778516  65.4592965  13.6730719
  23.0878134  64.8186157  13.6317337  22.3347824  65.7105860  14.5956899
  21.0907450  62.4458183  15.4926358  20.5544807  61.9948922  16.1447954
  20.5024158  62.5804092  14.7496822  30.3682702  70.3599903  14.8251277
  29.4809480  70.0225824  14.9477676  30.9381253  69.6282934  15.0620043
  16.8246571  61.5814191  12.5779353  16.7404760  60.9739860  11.8429762
  16.0029277  62.0723209  12.5788849  26.9970285  60.0667754   7.9449548
  27.4938984  59.3137717   7.6250618  26.2257266  60.1032071   7.3792757
  23.5805254  62.2085137   7.6721232  23.2103041  61.6556178   8.3602138
  24.0764346  61.6043271   7.1196232  29.4389280  57.0337348  10.0928906
  28.5252359  57.2641575  10.2611113  29.8682381  57.1175792  10.9442939
  29.2095738  65.2227240  12.5928801  28.5567188  65.4703147  11.9381253
  29.5876118  64.4091378  12.2591278  25.2583311  65.9647051  19.0794838
  24.5823948  65.8641180  19.7497213  26.0810945  65.8086265  19.5430835
  18.9770587  59.6189128  13.9174338  19.0411914  60.4803959  13.5051736
  18.9137707  59.0063130  13.1846697  18.4522860  61.6912261  17.5647373
  19.0794899  61.3089338  18.1784897  17.5950779  61.4726463  17.9303065
  18.7582650  61.5744686   9.4793276  18.0369235  62.1880654   9.3400749
  19.5475905  62.1102451   9.4009922  21.5608963  58.9099113  15.7533928
  22.0843365  59.1561409  16.5160237  21.3421296  59.7419148  15.3337065
  22.7661508  59.8512808  13.4383598  22.4258328  59.0520621  13.8404278
  22.0600514  60.1514519  12.8660431  23.4177980  56.9362120  11.8910921
  24.2404049  56.4622599  11.7689812  23.6616043  57.7152604  12.3909608
  20.9416559  63.6281241   9.7002900  20.7961139  63.9421544  10.5927181
  20.4641762  64.2466141   9.1473799  22.8012942  60.6183789   9.7483789
  22.7874510  59.7224882   9.4116087  23.5185370  60.6254453  10.3822075
  24.6539072  61.0521129  11.7936917  24.3956850  61.9738200  11.7921247
  24.1224113  60.6551564  12.4837381  22.2049837  59.4998169   5.0171360
  22.3265749  58.5714816   5.2162247  21.9151880  59.5136855   4.1049675
  25.0741028  57.1853080   8.1538079  25.0962725  57.2492413   7.1990059
  25.4909087  56.3457588   8.3478586  16.2028243  65.2956482  15.5320718
  15.4609979  65.4439117  16.1185348  15.8820987  65.5564747  14.6687467
  21.6890917  61.0130167  19.2261292  21.7379072  61.8892289  18.8439062
  22.2313431  60.4707560  18.6532935  32.2943638  68.4063756  15.8195158
  32.3441643  68.2413764  16.7610681  32.1857561  67.5391015  15.4293039
  29.5847400  64.3894684  17.1354465  30.4857263  64.2501149  16.8438462
  29.6595375  64.5549139  18.0752642  23.9190205  61.7661539  15.9807651
  23.0493515  62.0595105  15.7090239  24.1549686  62.3501984  16.7014914
  33.7961835  70.8260698  16.0637179  33.5046643  71.1890678  16.9000640
  33.1833966  70.1127706  15.8850511  32.0449023  65.9493312  14.5317237
  32.5203144  66.1420959  13.7236089  31.1214588  66.0052498  14.2860621
  26.6229239  57.9841156  13.4973071  27.1411183  58.7202183  13.1719560
  26.2684372  58.2905149  14.3319830  26.8741833  54.4041439   9.0173968
  27.1543587  53.7364628   9.6434394  27.6592440  54.5970534   8.5048632
  30.7450692  62.8259073  12.7645543  31.6968115  62.9257170  12.7857767
  30.5754142  62.0337341  13.2743627  28.7665071  59.9114656  12.9504944
  28.1715003  60.1919668  12.2551432  28.4814768  60.4008557  13.7221685
  33.2238770  66.0465192  11.8787843  33.1915090  65.1081193  12.0647526
  33.8339393  66.1249229  11.1453667  33.3733258  62.8376236  11.9246126
  32.8572307  62.0534692  11.7376055  34.2573207  62.5094952  12.0892645
  31.0343985  56.5817251   7.8841938  30.8368806  56.2732339   8.7685270
  31.6443691  57.3078890   8.0139868  37.1230617  65.2489062  11.6168331
  36.3963780  65.1145027  11.0084822  36.7077903  65.5565890  12.4225049
  24.9460793  68.9678991  19.3815704  25.8663802  69.1457590  19.5755750
  24.9110376  68.0235037  19.2295403  24.8627083  57.3848111   4.0114173
  24.0527812  57.0395196   4.3869419  25.5511500  57.0755655   4.6001785
  26.7917632  56.4626158   5.6338470  27.3448670  56.8821612   6.2928493
  27.0287718  55.5361906   5.6761426  22.8150731  62.4513232  21.4141234
  22.7147458  63.4007589  21.3453325  22.5972273  62.1231471  20.5417304
  30.1696439  58.5726683   5.1417134  29.5895108  59.2311487   4.7595186
  29.9032371  57.7504028   4.7304552  28.6200005  57.9731741   7.3438454
  29.1199783  58.0848276   6.5352773  29.2635613  57.6692794   7.9839263
  22.6782001  65.8810371  20.2306295  22.1949083  66.6810731  20.4370184
  22.7642940  65.8918315  19.2773739  32.3035853  60.7573295   7.9127822
  33.0796243  61.2469747   8.1852438  31.5783987  61.1831349   8.3699691
  34.7408411  61.4700914   8.9701762  35.3352902  61.2296650   8.2595070
  34.8134995  60.7508044   9.5975298  14.4489635  62.6754155  15.5337724
  15.0948498  62.1653109  16.0224949  14.2406786  63.4122837  16.1081149
  22.9693245  56.9394200   1.2861620  22.9571915  57.8836040   1.4429891
  23.8616667  56.7564345   0.9921081  26.7845365  53.5336976   5.5407557
  26.0177761  52.9795463   5.6864239  27.1956070  53.6058845   6.4021708
  18.7887126  59.8221772  19.6312738  19.6518587  59.4658577  19.8416063
  18.2152536  59.4835667  20.3188142  14.8082256  34.1212763   4.8174003
  14.3646110  33.3349141   4.4994908  15.4699469  34.3091913   4.1517894
  16.9063494  34.4015563   2.8455404  16.8881969  35.2224444   2.3535674
  17.8283414  34.2769638   3.0705546  17.8179335  31.0411401   5.2406123
  17.6664841  30.8121953   4.3236206  17.8084014  31.9982002   5.2537468
  19.5271541  34.0730524   3.3182604  19.4684087  33.3889744   2.6513187
  19.9291060  34.8149514   2.8663230  14.4189558  27.6417256   5.8040144
  13.7430195  27.5411385   6.4742519  15.2417192  27.4856470   6.2676141
  13.1612341  38.9484183   0.0397760  13.7130649  39.1115805   0.8046845
  13.5018534  39.5388621  -0.6322215  18.0123215  33.7745441   5.8946415
  18.5563119  34.3875399   5.4001369  17.4310060  34.3325019   6.4113428
  13.3078152  36.5142665   2.0546415  13.6165279  36.2691812   2.9269114
  14.1053634  36.7189303   1.5665285  21.3352009  33.2341495   5.2307736
  20.5447553  33.2165634   4.6912235  21.0985364  33.7729789   5.9856772
  21.4549885  30.0833961   2.5440464  21.5047889  29.9183969   3.4855987
  21.3463808  29.2161220   2.1538345  22.9568081  32.5030903   2.7882486
  22.6652890  32.8660883   3.6245947  22.3440213  31.7897911   2.6095818
  14.1067040  30.6449196   6.1061010  15.0270049  30.8227795   6.3001057
  14.0716623  29.7005242   5.9540710  16.1349274  31.4205208   7.7575171
  17.0040433  31.5945860   7.3961806  15.6556025  32.2399624   7.6350900
  27.7941749  43.1293834  -2.8379554  28.4320159  43.0100581  -3.5416214
  27.6762592  44.0774678  -2.7791602  24.6031456  43.0821262  -2.9018030
  24.2649967  42.9662326  -3.7897495  25.4721224  42.6812427  -2.9217023
  25.0851239  44.2356113   3.0568176  25.0739879  43.8408912   2.1848680
  25.2471878  43.5022186   3.6501947  21.8058500  47.0193225   2.0047360
  21.5148366  47.9238856   1.8894026  22.4415484  47.0609753   2.7191430
  22.7314707  44.3970074  -1.4051280  23.3278279  44.1726096  -2.1194317
  22.7889678  43.6554819  -0.8025833  27.3483018  40.8545287  -5.7626346
  28.1346107  40.4364711  -6.1135929  27.6121722  41.7591380  -5.5944698
  32.7491445  40.7920521  -4.8593368  33.4816617  40.2219737  -4.6255538
  31.9930801  40.4042121  -4.4186862  30.2716865  34.5042095  -0.3998759
  29.9400190  35.3737506  -0.6237544  29.6762479  34.1878379   0.2795271
  26.7648385  46.7054641  -1.0002846  26.4649108  47.6079680  -1.1087039
  26.4199444  46.4386824  -0.1481693  30.1645529  39.2237181  -3.3205409
  29.2562406  39.1552589  -3.6146648  30.1133125  39.7009126  -2.4923584
  24.2386395  40.6426826   4.6229488  23.4619729  41.2020747   4.6132353
  24.8776958  41.1283609   5.1444358  32.0307175  37.4253619  -1.5427535
  31.3881555  37.7186152  -2.1887741  31.5262104  37.3106540  -0.7374338
  22.4932767  43.4512280   4.1847455  23.2347451  43.9897324   3.9082279
  21.7869752  44.0778569   4.3419007  27.9688106  45.5941420   2.7819617
  28.3771463  45.1523831   2.0374249  27.2465368  45.0194048   3.0353810
  24.3219177  40.5314027   0.1553174  25.1680372  40.9553441   0.2987823
  24.2617814  39.8747651   0.8491737  28.2916921  46.1542611  -3.4628094
  27.6625784  46.3188325  -4.1652027  27.9042583  46.5684220  -2.6917130
  27.4718622  38.1918395   1.8134347  27.2279554  38.9460456   1.2768623
  27.7478552  38.5703743   2.6481594  29.4257085  44.7357008   0.4911613
  29.6373980  45.3788768  -0.1854006  29.3786833  43.9019324   0.0233543
  27.0283314  37.3474828  -2.6051815  26.1667793  37.6456082  -2.3135077
  27.0545748  37.5645227  -3.5370782  20.7368964  45.4388501  -3.2598246
  21.3070321  45.8675769  -3.8980762  21.3277076  45.1571085  -2.5614060
  21.2294131  40.6051928   4.9862765  20.5992791  41.2868209   5.2198162
  21.1230218  40.4935010   4.0415903  30.5402913  47.6128963  -1.3366030
  31.3620356  47.2109151  -1.6183348  30.5365315  47.5097197  -0.3849914
  24.3059516  47.1613007   0.8194681  24.3703949  47.6233414   1.6552853
  23.5970440  46.5310371   0.9476991  20.5074873  34.9072694   7.3488016
  20.1141819  34.3538892   8.0235661  21.3241014  35.2183272   7.7394534
  23.4242834  36.3230573   4.9408273  24.1652548  36.9237726   4.8612735
  23.6560757  35.5808211   4.3826315  18.5684172  41.5086940   3.2186503
  18.4537687  40.6072197   3.5193601  17.7128690  41.7550637   2.8671319
  25.6476010  49.4504681   4.8174003  25.2039864  48.6641059   4.4994908
  26.3093224  49.6383831   4.1517894  27.7457248  49.7307480   2.8455404
  27.7275723  50.5516361   2.3535674  28.6677168  49.6061556   3.0705546
  24.2030302  47.2451610   3.6878913  24.7358639  46.4839898   3.4578221
  23.6744383  46.9525262   4.4303067  27.3699997  32.3511676  -0.7827445
  27.0264267  33.2413318  -0.8588335  27.7378960  32.1613334  -1.6457860
  30.5475861  44.5686623  -3.6835229  29.8899535  45.2585884  -3.5955100
  31.3516260  44.9583055  -3.3401243  25.8362151  40.3980451  -3.3872947
  24.9184712  40.6195398  -3.5451259  26.2522294  40.4726762  -4.2461239
  23.4408743  41.9059028  -5.1733517  23.4957352  40.9532865  -5.2491040
  22.6299945  42.0618467  -4.6892218  26.9775314  40.9877912   1.4171756
  27.3324702  41.2149386   2.2766222  27.6247445  41.3196289   0.7949011
  20.8715177  38.0954443  -1.7981903  21.5114557  37.9543203  -2.4958940
  20.0392708  37.8088957  -2.1743301  26.4670326  49.7774969  -1.3334543
  26.5207348  50.3465906  -0.5656827  25.5985107  49.9476854  -1.6980506
  19.3468719  39.4792526   0.1489908  20.0191772  39.2709888  -0.4997443
  18.5198506  39.2814612  -0.2904859  33.5957980  46.2196576  -0.3334758
  33.7893870  47.1242386  -0.0875483  33.4958599  45.7603995   0.5003827
  25.2494291  36.1054466   2.1655569  24.6022206  36.8044416   2.0720046
  26.0195306  36.5390610   2.5331817  28.6573089  46.3703319   5.2406123
  28.5058595  46.1413870   4.3236206  28.6477768  47.3273920   5.2537468
  25.4258425  43.9435231   0.2252389  26.3550485  44.0946391   0.0521356
  25.0049455  44.0319252  -0.6298964  24.2246757  47.9685896  -2.0049073
  24.0857843  47.6004680  -1.1323135  23.4361353  48.4833535  -2.1765116
  25.7751972  47.3467499  -4.6160236  25.4401805  47.3068268  -3.7202586
  25.2755918  46.6812214  -5.0889825  19.7496216  42.7535129   0.9092346
  19.6116014  42.0215367   1.5103885  20.6601140  42.6644029   0.6276533
  22.3778517  42.4655088   0.3976025  23.0878136  41.8248280   0.3562644
  22.3347825  42.7167983   1.3202206  30.3665296  49.4022441   3.3182604
  30.3077842  48.7181661   2.6513187  30.7684814  50.1441431   2.8663230
  21.0907451  39.4520306   2.2171665  20.5544808  39.0011044   2.8693261
  20.5024159  39.5866215   1.4742129  30.3682703  47.3662025   1.5496584
  29.4809482  47.0287947   1.6722983  30.9381254  46.6345056   1.7865350
  26.3582540  51.9250312   0.6715986  27.0710512  52.5597776   0.5991887
  25.8672568  52.0214178  -0.1444012  21.4094453  49.6744755   1.4921557
  22.1103913  50.3081238   1.6450951  20.9389568  50.0159487   0.7317196
  29.4389281  34.0399470  -3.1825787  28.5252361  34.2703697  -3.0143580
  29.8682382  34.1237915  -2.3311755  29.2095739  42.2289362  -0.6825893
  28.5567190  42.4765270  -1.3373440  29.5876119  41.4153501  -1.0163416
  25.2583312  42.9709173   5.8040144  24.5823949  42.8703303   6.4742519
  26.0810946  42.8148387   6.2676141  24.0006095  54.2776101   0.0397760
  24.5524403  54.4407722   0.8046845  24.3412289  54.8680539  -0.6322215
  18.9770588  36.6251251   0.6419645  19.0411915  37.4866082   0.2297043
  18.9137709  36.0125252  -0.0907997  18.4522861  38.6974383   4.2892679
  19.0794900  38.3151461   4.9030204  17.5950780  38.4788585   4.6548372
  28.8516970  49.1037358   5.8946415  29.3956874  49.7167317   5.4001369
  28.2703814  49.6616937   6.4113428  29.2009391  50.0267097  -1.3459008
  28.2539726  49.9072448  -1.4180681  29.5492164  49.1389595  -1.2632746
  21.5608964  35.9161235   2.4779234  22.0843366  36.1623532   3.2405544
  21.3421298  36.7481270   2.0582372  22.7661509  36.8574931   0.1628905
  22.4258330  36.0582744   0.5649585  22.0600516  37.1576641  -0.4094262
  23.4177981  33.9424243  -1.3843772  24.2404050  33.4684721  -1.5064882
  23.6616045  34.7214727  -0.8845086  20.9416560  40.6343364  -3.5751793
  20.7961141  40.9483667  -2.6827512  20.4641764  41.2528264  -4.1280895
  24.6539074  38.0583252  -1.4817776  24.3956851  38.9800322  -1.4833446
  24.1224114  37.6613686  -0.7917312  16.2028244  42.3018604   2.2566025
  15.4609980  42.4501240   2.8430655  15.8820988  42.5626870   1.3932774
  24.1471907  51.8434583   2.0546415  24.4559033  51.5983729   2.9269114
  24.9447389  52.0481221   1.5665285  21.6890918  38.0192289   5.9506599
  21.7379074  38.8954412   5.5684368  22.2313432  37.4769682   5.3778242
  32.1745764  48.5633413   5.2307736  31.3841308  48.5457551   4.6912235
  31.9379119  49.1021706   5.9856772  32.2943639  45.4125879   2.5440464
  32.3441644  45.2475886   3.4855987  32.1857562  44.5453138   2.1538345
  29.5847401  41.3956807   3.8599771  30.4857264  41.2563272   3.5683769
  29.6595376  41.5611262   4.7997949  23.9190207  38.7723662   2.7052957
  23.0493516  39.0657228   2.4335546  24.1549687  39.3564107   3.4260221
  33.7961836  47.8322820   2.7882486  33.5046644  48.1952801   3.6245947
  33.1833967  47.1189829   2.6095818  32.0449024  42.9555435   1.2562544
  32.5203146  43.1483081   0.4481395  31.1214589  43.0114621   1.0105928
  26.6229241  34.9903279   0.2218378  27.1411184  35.7264306  -0.1035134
  26.2684373  35.2967272   1.0565137  30.7450693  39.8321195  -0.5109150
  31.6968116  39.9319293  -0.4896926  30.5754143  39.0399464  -0.0011066
  28.7665073  36.9176778  -0.3249749  28.1715005  37.1981791  -1.0203261
  28.4814769  37.4070679   0.4466992  33.2238771  43.0527315  -1.3966851
  33.1915091  42.1143316  -1.2107167  33.8339395  43.1311352  -2.1301026
  33.3733259  39.8438358  -1.3508568  32.8572308  39.0596815  -1.5378639
  34.2573208  39.5157075  -1.1862048  37.1230618  42.2551184  -1.6586363
  36.3963781  42.1207149  -2.2669871  36.7077905  42.5628013  -0.8529645
  24.9460794  45.9741114   6.1061010  25.8663804  46.1519713   6.3001057
  24.9110377  45.0297159   5.9540710  17.9422867  43.8842149  -1.2516209
  18.1608877  44.8159256  -1.2328175  18.3548641  43.5250123  -0.4661405
  22.8150732  39.4575354   8.1386540  22.7147459  40.4069711   8.0698631
  22.5972274  39.1293593   7.2662610  22.6782002  42.8872493   6.9551602
  22.1949084  43.6872853   7.1615491  22.7642941  42.8980438   6.0019046
  18.6055340  46.7777028  -1.0079964  19.5598593  46.7460970  -1.0750033
  18.4067863  46.3167652  -0.1929738  19.1954722  45.3478144   1.5590833
  20.0147611  45.8422223   1.5825671  19.4691529  44.4310112   1.5308401
  32.3035854  37.7635417  -5.3626872  33.0796244  38.2531870  -5.0902255
  31.5783988  38.1893471  -4.9055002  34.7408413  38.4763036  -4.3052931
  35.3352904  38.2358772  -5.0159623  34.8134996  37.7570167  -3.6779395
  14.4489636  39.6816278   2.2583030  15.0948500  39.1715232   2.7470256
  14.2406787  40.4184959   2.8326456  26.9743028  46.7497125   7.7575171
  27.8434188  46.9237778   7.3961806  26.4949780  47.5691542   7.6350900
  18.7887127  36.8283895   6.3558045  19.6518589  36.4720700   6.5661369
  18.2152538  36.4897790   7.0433449  35.0780149  55.9718744   4.6229488
  34.3013483  56.5312664   4.6132353  35.7170712  56.4575527   5.1444358
  32.0687885  55.9343846   4.9862765  31.4386546  56.6160127   5.2198162
  31.9623973  55.8226927   4.0415903  31.3468628  50.2364612   7.3488016
  30.9535573  49.6830810   8.0235661  32.1634768  50.5475190   7.7394534
  34.2636589  51.6522491   4.9408273  35.0046302  52.2529644   4.8612735
  34.4954512  50.9100128   4.3826315  29.4077927  56.8378858   3.2186503
  29.2931442  55.9364115   3.5193601  28.5522445  57.0842555   2.8671319
  36.0888046  51.4346384   2.1655569  35.4415961  52.1336334   2.0720046
  36.8589061  51.8682528   2.5331817  29.8164343  51.9543168   0.6419645
  29.8805669  52.8157999   0.2297043  29.7531463  51.3417170  -0.0907997
  29.2916615  54.0266301   4.2892679  29.9188654  53.6443378   4.9030204
  28.4344534  53.8080503   4.6548372  32.4002719  51.2453153   2.4779234
  32.9237121  51.4915450   3.2405544  32.1815052  52.0773188   2.0582372
  32.5284673  53.3484207   5.9506599  32.5772828  54.2246330   5.5684368
  33.0707187  52.8061600   5.3778242  33.6544487  54.7867272   8.1386540
  33.5541213  55.7361629   8.0698631  33.4366029  54.4585511   7.2662610
  33.5175757  58.2164411   6.9551602  33.0342838  59.0164771   7.1615491
  33.6036696  58.2272356   6.0019046  25.2883391  55.0108195   2.2583030
  25.9342254  54.5007149   2.7470256  25.0800542  55.7476877   2.8326456
  29.6280882  52.1575813   6.3558045  30.4912343  51.8012617   6.5661369
  29.0546292  51.8189707   7.0433449
  71.2421504  71.2421504  71.2421504 109.4712190 109.4712190 109.4712190
