default_name
 25009
  34.4318057  56.0992918  40.8507503  34.8143833  55.1868214  40.6489038
  34.3940276  56.2207396  41.8528258  34.9032548  56.7831112  40.2759513
  33.0431570  56.1162890  40.4077290  32.4736728  56.3244790  41.1655619
  32.8333150  57.2002325  39.3482939  31.9253867  57.1377005  39.0131061
  32.9715235  58.0686936  39.7590040  33.7751535  57.0964088  38.1570882
  34.8061623  57.1794573  38.5007184  33.6332389  56.1341011  37.6636492
  33.4750692  58.2229271  37.1712784  34.1005247  59.3060308  37.3263425
  32.6225402  57.9904185  36.2726043  32.6087243  54.7613830  39.8505657
  31.6055879  54.6754525  39.1477519  33.3569236  53.7080074  40.1659808
  34.0827191  53.7384676  40.6244730  32.9695965  52.3729626  39.7290115
  32.7764777  52.3855875  38.7784834  34.0828390  51.3557080  39.9861792
  34.9396316  51.7789565  39.8210633  34.0311353  51.0601048  40.9078774
  33.9892051  50.1323055  39.0987054  34.6172880  50.1087354  37.8628028
  35.1025818  50.8515524  37.5843088  34.5313038  49.0016126  37.0307410
  34.9636465  49.0017253  36.2069063  33.8153691  47.9018594  37.4328325
  33.7547183  46.8126259  36.5989849  33.2913620  46.2069162  36.9505566
  33.1729894  47.8886564  38.6558378  32.6895036  47.1418068  38.9263025
  33.2641008  49.0147450  39.4879977  32.8339198  49.0118816  40.3127044
  31.7057820  51.9574143  40.4733915  31.6565883  52.0611993  41.7049505
  30.6666522  51.5053173  39.7827248  30.5469301  51.3084699  38.3277205
  31.2993111  50.7962426  37.9934287  30.4696336  52.1637756  37.8767633
  29.2715039  50.5229715  38.1849567  29.4483529  49.5697834  38.2282445
  28.8181363  50.7508379  37.3579140  28.4280487  50.9311377  39.3503290
  27.8091894  50.2247767  39.5921458  27.9535039  51.7560257  39.1609718
  29.4291920  51.1559367  40.4858582  29.1328679  51.8908116  41.0444134
  29.6139785  49.9072441  41.3319579  30.2633815  48.9456775  40.9169407
  29.0509210  49.9407617  42.5366558  28.5988687  50.6077141  42.8369509
  29.1491655  48.8332069  43.4737205  29.8118449  48.2028615  43.1509053
  29.5868328  49.3129918  44.8644415  29.5938487  48.5603730  45.4764143
  30.9769967  49.8918213  44.8070448  31.2472052  50.1921530  45.6889916
  31.6036757  49.2191983  44.4986023  30.9968256  50.6450816  44.1970581
  28.6708959  50.3036358  45.3415893  28.6564954  50.9583079  44.8162531
  27.8169337  48.1066482  43.5797483  26.7620610  48.5953403  43.1630415
  27.8925507  46.9201284  44.1769976  28.6056015  46.6020110  44.5376773
  26.7336332  46.0400683  44.2693696  26.5106509  45.7241635  43.3794746
  27.0840872  44.8102136  45.1288644  27.7799304  44.3051645  44.6798470
  27.6253071  45.2318682  46.4946310  27.8357528  44.4370951  47.0094322
  28.4263862  45.7639998  46.3661546  26.9503710  45.7546253  46.9534113
  25.8748145  43.9009864  45.2758589  26.1200081  43.1358965  45.8199431
  25.1578570  44.3954032  45.7035422  25.5933970  43.6047309  44.3955681
  25.5220501  46.7877144  44.8127007  24.3902793  46.5759726  44.3610655
  25.7366878  47.6849582  45.7761513  26.5126602  47.9093258  46.0728314
  24.6236411  48.3730918  46.4161460  23.9588914  47.7158606  46.6732707
  25.1069444  49.0727532  47.6935108  25.5631118  48.3398949  48.3598290
  25.8423819  49.8352117  47.4348242  23.9949035  49.6875000  48.3506625
  24.2978424  50.1247259  49.1498042  23.9435396  49.3908277  45.5075071
  22.8425686  49.8435605  45.8382727  24.5542562  49.7550947  44.3775426
  25.2830458  49.4026612  44.0874592  24.0232900  50.8078046  43.5202896
  23.4446511  51.3786741  44.0480775  25.1614638  51.6731486  42.9638464
  25.6852331  51.1337377  42.3513608  24.7702239  52.4193438  42.4825512
  26.1172274  52.2487093  43.9892126  25.6783956  52.9706570  44.4646327
  26.3782747  51.5494904  44.6088989  27.3741832  52.8015109  43.3370090
  27.2535638  53.5685539  42.3571881  28.4846908  52.4531509  43.7866801
  23.2137469  50.2872160  42.3390785  22.5099615  51.0764135  41.7040366
  23.3012199  49.0015450  42.0161053  23.6658329  48.4021355  42.5138317
  22.7723564  48.4844026  40.7588671  22.4489096  49.2231712  40.2191003
  23.8425040  47.7361610  39.9553252  24.1186892  46.9555117  40.4606483
  23.2519201  47.2714476  38.6277179  23.9353474  46.7996583  38.1263209
  22.5034194  46.6812502  38.8039215  22.9520407  48.0469255  38.1281259
  25.0634583  48.6278846  39.7275893  24.7929821  49.4058182  39.2144539
  25.4140596  48.9061705  40.5883946  26.1771294  47.9369017  38.9738384
  26.9154652  48.5560212  38.8647630  26.4664976  47.1613388  39.4785790
  25.8454201  47.6609865  38.1046384  21.5916807  47.5698441  41.0738967
  21.7884757  46.4693519  41.6111366  20.3617944  47.9536474  40.7349753
  19.9284472  49.2601559  40.2138693  20.0964631  49.3174769  39.2601864
  20.3645554  49.9790557  40.6975260  18.4620143  49.2637430  40.4856625
  17.9922815  49.7860059  39.8159472  18.2798881  49.6051775  41.3743911
  18.0325939  47.8348198  40.3982229  17.8266125  47.5929136  39.4817165
  17.2706579  47.6694155  40.9752947  19.2376739  47.0218921  40.8887946
  19.1149679  46.7772324  41.8192353  19.4466170  45.7752614  40.0437545
  19.9608081  45.8446612  38.9270629  19.0517181  44.6242537  40.5892093
  18.7961054  44.5241541  41.4049146  19.0295399  43.4069350  39.7857597
  19.9279421  43.2078839  39.4787531  18.5262441  42.2170470  40.6080528
  17.6462072  42.4224962  40.9608171  18.4065199  40.9682958  39.7259407
  18.0864500  40.2295954  40.2672372  17.7792842  41.1488558  39.0075533
  19.2790044  40.7564199  39.3590109  19.4553700  41.9463986  41.7824077
  19.1162657  41.1905779  42.2859207  20.3420490  41.7477799  41.4438990
  19.4863568  42.7341657  42.3477463  18.1513772  43.6558526  38.5690311
  16.9791751  44.0278629  38.6978784  18.7134082  43.4482201  37.3795628
  19.5136975  43.1511082  37.2748232  18.0287539  43.7049460  36.1297510
  18.0667425  42.9091770  35.5757424  17.0967791  43.9032246  36.3122655
  18.6110310  44.8572238  35.3416404  18.4112499  44.9226618  34.1212227
  19.3330914  45.7558019  35.9997103  19.4581826  45.7409411  36.8503574
  19.9918098  46.8671642  35.3345494  19.5588578  47.0304869  34.4815006
  19.8930294  48.1429904  36.1740391  20.2804422  47.9714674  37.0476048
  20.3890255  48.8480783  35.7293404  18.4692656  48.6374646  36.3862488
  18.0107464  48.8525726  35.4204808  17.8897823  47.8699657  36.8995388
  18.4930559  49.9082222  37.2327180  18.5776476  51.0061118  36.6204063
  18.4255679  49.7685695  38.4825370  21.4522314  46.5259636  35.0722957
  22.0615954  45.7167548  35.7750883  22.0083863  47.1468664  34.0385344
  21.5854287  47.6884380  33.5213486  23.4059555  46.9693485  33.6731953
  23.8633258  46.4834166  34.3769287  23.5541054  46.1742159  32.3560549
  23.0060509  46.5897000  31.6732620  25.0086073  46.1827898  31.8654861
  25.0656992  45.6767404  31.0392503  25.2837540  47.1002550  31.7105121
  25.5727319  45.7776505  32.5422184  23.0599853  44.7491412  32.5512691
  23.1595133  44.2636093  31.7178077  23.5868706  44.3251295  33.2470290
  22.1260073  44.7719803  32.8114814  24.0392925  48.3430229  33.5498398
  23.4242621  49.2778016  33.0255665  25.2647895  48.4650015  34.0410093
  25.6681580  47.8429915  34.4768630  26.0576630  49.6720992  33.8900266
  25.5206493  50.3612781  33.4675628  26.5396202  50.1945975  35.2483445
  27.0852744  49.5106364  35.6681406  27.0703616  50.9926116  35.1035584
  25.4254611  50.5519033  36.2156521  24.7005007  49.9149973  36.1184711
  25.7703179  50.5321787  37.1219626  24.8800950  51.9387041  35.9445919
  25.6796074  52.6718714  36.0528078  24.4833212  51.9819332  34.9303455
  23.7950420  52.2766378  36.8933104  23.5338539  51.5938199  37.5899261
  23.1479124  53.4383276  36.8685737  23.4340887  54.3860745  35.9812587
  24.1637583  54.2322580  35.2994400  22.9215664  55.2561479  35.9930556
  22.1886080  53.6373843  37.7681450  21.9733943  52.9148944  38.4412345
  21.6799239  54.5098749  37.7746104  27.2605957  49.3858747  33.0014126
  27.7832532  48.2677108  32.9720272  27.6922165  50.4118782  32.2779202
  27.2630169  51.1534439  32.1984093  28.9440862  50.3877680  31.5409351
  29.3295263  49.4981828  31.5865438  28.7243137  50.7467440  30.0689547
  28.4305850  51.6703938  30.0204117  29.5687748  50.6526340  29.6016961
  27.6868131  49.8958015  29.3179258  26.8073784  50.0573529  29.6958620
  27.6555136  50.2983610  27.8567800  26.9987429  49.7558488  27.3940158
  27.4151076  51.2366201  27.7932283  28.5336902  50.1553772  27.4717260
  27.9960688  48.4186335  29.4511831  27.3253161  47.9109003  28.9687996
  28.8742180  48.2456459  29.0782030  27.9819527  48.1766304  30.3902935
  29.9185623  51.3697523  32.1780827  29.5252114  52.4551681  32.6162020
  31.1875142  50.9815498  32.2330895  31.4666497  50.2178867  31.9508995
  32.2474345  51.8168802  32.7817953  31.9207270  52.7218240  32.9050996
  32.7143821  51.2713173  34.1361203  31.9492857  51.2187212  34.7305504
  33.0859408  50.3854600  34.0031165  33.7683542  52.1129444  34.8180702
  35.1205101  51.9094764  34.5648882  35.3795070  51.2452657  33.9674196
  36.0861725  52.6793786  35.1867555  36.9871914  52.5339961  35.0093129
  35.7001702  53.6642759  36.0705731  36.6485827  54.4410255  36.6983189
  36.2753880  54.9965826  37.2063268  34.3674325  53.8862040  36.3372886
  34.1129625  54.5505582  36.9354554  33.4106142  53.1093314  35.7139391
  32.5113253  53.2606690  35.8932639  33.3917422  51.8417651  31.7825148
  34.0153089  50.8072378  31.5328313  33.6743060  53.0131025  31.2207351
  33.2704407  53.7523553  31.3956841  34.7346782  53.1243308  30.2294329
  34.7072977  52.3482192  29.6483416  34.5558005  54.3708401  29.3640895
  33.6419117  54.4039824  29.0392896  34.7502569  55.1584082  29.8950971
  35.4925282  54.3691077  28.1520931  36.3549480  54.7196611  28.4237938
  35.5937242  53.4568927  27.8366932  34.9959681  55.2079729  26.9925163
  34.1191471  56.0570559  27.1462953  35.5586225  54.9670006  25.8144529
  36.1689422  54.3649473  25.7451156  35.3145531  55.4139875  25.1207686
  36.0950365  53.1526370  30.9153354  36.3323884  53.9577733  31.8220561
  36.9808506  52.2595314  30.4845435  36.8268562  51.7001449  29.8505360
  38.3187786  52.1398114  31.0526745  38.3276612  52.5609723  31.9269344
  38.6634407  50.6457160  31.2420108  38.5855747  50.2073907  30.3802673
  40.1081826  50.4677393  31.7411493  40.2896859  49.5204987  31.8490046
  40.7158958  50.8493762  31.0897485  40.2062168  50.9217589  32.5920790
  37.6580395  49.9980905  32.1962568  37.8590647  50.2807255  33.1021516
  36.7639880  50.2856021  31.9526712  37.6827741  48.5030951  32.1655509
  37.0235066  48.1644741  32.7914608  37.4724488  48.2026327  31.2677611
  38.5675412  48.1974810  32.4186286  39.3578692  52.8385040  30.1874743
  40.2690571  53.4880393  30.6988592  39.2404012  52.7045433  28.8725170
  38.6264979  52.2382385  28.4899825  40.1538693  53.3426801  27.9419411
  40.4093804  54.2137440  28.2833524  41.4203799  52.5049941  27.7456400
  42.0054092  52.9609632  27.1200492  41.8662578  52.4024374  28.6012199
  41.1723015  51.6355572  27.3943743  39.4112695  53.5340201  26.6329600
  38.2658828  53.0986978  26.4788603  40.0676893  54.1905315  25.6865886
  40.8011653  54.6243578  25.8032406  39.5565563  54.2136718  24.3293795
  38.7383456  54.7335645  24.2982678  40.5754603  54.8538825  23.3893705
  40.7983917  55.7384039  23.7186798  41.3711039  54.2993344  23.3590759
  40.0504773  54.9974879  21.9740206  39.4473269  56.0664880  21.6888988
  40.2547045  54.0375208  21.1837141  39.2429696  52.7924182  23.8917832
  40.1359950  51.9432635  23.8019683  37.9652187  52.5260829  23.6631106
  37.3183629  53.0739406  23.8057415  37.5570210  51.2434414  23.1358400
  36.6554441  51.3245231  22.7872445  38.1409093  51.0114871  22.3969222
  37.5692212  50.0866026  24.1124076  37.5245853  48.9326802  23.6735915
  37.6105111  50.3425320  25.4206921  37.6927634  51.1280490  25.7600778
  37.5152942  49.2706227  26.4073862  37.1443911  48.4825960  25.9820970
  38.8793581  48.8884829  27.0060913  39.2108983  49.6280676  27.5390093
  38.7265492  47.6817452  27.9155167  39.5941544  47.4527241  28.2841841
  38.1097869  47.9018290  28.6308253  38.3807066  46.9388331  27.3972401
  39.8954801  48.6009371  25.9124262  40.7415386  48.3636611  26.3222347
  39.5731369  47.8648845  25.3678489  40.0041479  49.3942329  25.3656043
  36.5608471  49.7049500  27.5107150  36.7588234  50.7546684  28.1340365
  35.5279648  48.9006321  27.7486076  35.3438830  48.2086866  27.2710478
  34.5955379  49.1037397  28.8454888  34.9126297  49.8224189  29.4147963
  33.1777023  49.4411481  28.3697296  32.8164713  48.6598432  27.9233153
  32.6372006  49.6401708  29.1506489  33.0308922  50.5877190  27.4330210
  32.5329548  51.8235800  27.7276937  32.2442182  52.0937956  28.5689028
  32.5269351  52.6129366  26.6075375  32.2576567  53.4278848  26.5717673
  33.0114499  51.8864473  25.5503602  33.1982549  52.2545383  24.2161646
  32.9798895  53.1073414  23.9155380  33.7117056  51.3137766  23.3677720
  33.8468988  51.5314094  22.4736441  34.0434364  50.0269356  23.8175108
  34.3930464  49.4091066  23.2173998  33.8646397  49.6636235  25.1446332
  34.0829766  48.8078704  25.4360241  33.3409639  50.6044617  26.0335282
  34.5109599  47.8295905  29.6701247  34.7623767  46.7286786  29.1771912
  34.1344150  47.9800912  30.9362797  34.1857824  48.7143015  31.3819092
  33.5865763  46.8566058  31.6770828  33.7982665  46.0310751  31.2132516
  34.1541175  46.7704838  33.0983030  33.8839785  45.9269278  33.4935234
  35.1222276  46.8162398  33.0524426  33.6865137  47.8250517  33.9110700
  34.0102241  47.7579029  34.6834971  32.0747328  47.0142722  31.7103190
  31.5495342  48.1228873  31.5576101  31.3735727  45.8912387  31.8452125
  31.7067977  45.1011086  31.7835307  29.9463226  45.9141903  32.1153557
  29.6539301  46.8380143  32.1569469  29.1212238  45.2120690  31.0021366
  28.1794817  45.3017773  31.2173019  29.3036018  45.6557938  30.1595159
  29.3988915  43.7517770  30.8081961  28.8510753  42.7710782  31.6083118
  29.2179327  41.5834118  31.1610307  28.9949378  40.7648243  31.5433666
  29.9612037  41.7546660  30.0821289  30.3235424  41.1274137  29.6191427
  30.0755544  43.1011560  29.8316544  30.5457914  43.4933738  29.1312807
  29.7103969  45.2963579  33.4842122  30.4023276  44.3529432  33.8811838
  28.7903838  45.8872869  34.2346753  28.2738861  46.5164521  33.9550766
  28.5636315  45.5200974  35.6271753  29.0651434  44.7149837  35.8338458
  29.0083761  46.6311985  36.6030328  28.4217165  47.3949039  36.4871600
  28.8851389  46.1449882  38.0320384  29.1679448  46.8540657  38.6308296
  27.9599671  45.9119544  38.2075304  29.4515362  45.3672388  38.1504021
  30.4452803  47.0741898  36.3177560  30.8452680  47.3790388  37.1479445
  30.9412704  46.3152242  35.9749278  30.5672592  48.1965028  35.3090332
  31.5058354  48.4123308  35.1905349  30.1844332  47.9059024  34.4663366
  30.0887062  48.9723741  35.6413189  27.0849825  45.2233628  35.8121606
  26.2321885  46.0259082  35.4200761  26.7836531  44.0825126  36.4248951
  27.3675819  43.5080305  36.6857370  25.4101390  43.6947547  36.7146393
  24.8388895  44.4763125  36.6742240  24.8985787  42.6694582  35.7003208
  23.9840673  42.4350383  35.9229979  24.9333643  43.0604110  34.8128604
  25.4620604  41.8812164  35.7366149  25.3582420  43.1327122  38.1278006
  26.3847553  43.0050920  38.8031439  24.1486111  42.7972836  38.5731339
  23.4252919  42.8977370  38.1189451  23.9345504  42.2200921  39.8921282
  24.7762558  41.8795848  40.2324937  23.3972660  43.2570040  40.8896217
  23.1291284  42.8067600  41.7052463  24.4846623  44.2728995  41.2402434
  24.1395892  44.9240428  41.8699783  25.2441885  43.8206427  41.6394020
  24.7786721  44.7339016  40.4379939  22.2667877  43.9318609  40.3290140
  21.9718135  44.4993482  40.8745481  22.9641731  41.0552749  39.7701828
  22.1468916  41.0018624  38.8467868  23.0652186  40.1126319  40.7067542
  23.6310013  40.1189903  41.3540427  22.1793023  38.9597898  40.6849933
  21.3294214  39.2208194  40.2965192  22.7621304  37.8251469  39.8305327
  23.0747663  38.1954172  38.9906162  23.5054947  37.4250914  40.3094335
  21.7630446  36.7124734  39.5073018  22.1744806  36.0863931  38.8918784
  21.5185486  36.2573927  40.3281881  20.4898570  37.2353135  38.8633759
  19.4905218  37.4874029  39.5432222  20.5236619  37.4140693  37.5532047
  21.2383031  37.2293219  37.1126979  19.8286445  37.7099108  37.1417649
  21.9207336  38.4845767  42.1068975  22.7751058  38.6112242  42.9881640
  20.7254209  37.9440715  42.3181976  20.1033421  37.9026668  41.7251540
  20.3528212  37.3618954  43.6005101  20.8859691  37.7622087  44.3053793
  18.8772954  37.6125812  43.9048227  18.3413899  37.2605290  43.1778341
  18.6463361  37.1638687  44.7340277  18.6139607  38.9963133  44.0430483
  17.7994668  39.1187285  44.2099109  20.6282500  35.8654101  43.5789269
  20.3651868  35.1887592  42.5804649  21.1602392  35.3491138  44.6831138
  21.3500455  35.7993639  45.3909573  21.4718575  33.9289476  44.7735784
  20.7538912  33.4158507  44.3706877  22.7747387  33.6096715  44.0214631
  22.7540394  34.0508778  43.1582931  23.5243024  33.9401547  44.5406203
  22.9926868  32.1460882  43.7828490  23.5484317  31.3423522  44.7620038
  23.7859231  31.7143368  45.5806699  23.7490197  29.9939326  44.5420966
  24.1223604  29.4631578  45.2083314  23.3988022  29.4358493  43.3309498
  23.5335379  28.5278487  43.1796545  22.8474746  30.2238210  42.3450145
  22.6091292  29.8495275  41.5280630  22.6463144  31.5742013  42.5725261
  22.2738933  32.1026848  41.9036638  21.5778004  33.5359413  46.2357738
  22.2998994  34.1830889  46.9997051  20.8431161  32.4905622  46.6265108
  20.3080959  32.0585625  46.1107487  20.8817682  31.9766096  47.9955560
  20.1725987  31.3226846  48.1002834  22.2134225  31.2651523  48.2676336
  22.8630288  31.5479932  47.6055402  22.5211821  31.5024102  49.1568342
  22.1014669  29.7554805  48.1980768  20.9688474  29.2318521  48.1798780
  23.1569779  29.0895258  48.1629357  20.6414215  33.0884078  49.0160727
  21.2456156  33.1177577  50.0913857  19.7647768  34.0299816  48.6698493
  19.4072012  34.0991518  47.8902762  19.3347694  35.0436597  49.6124990
  18.4349434  35.3206540  49.3798698  19.3045199  34.6509628  50.4981203
  20.1946397  36.2888315  49.6896298  19.8673042  37.1896658  50.4667205
  21.2787658  36.3702035  48.9271580  21.5467158  35.7350472  48.4117666
  22.1336111  37.5469170  48.8833540  21.7630859  38.2345914  49.4586218
  23.5481405  37.2161809  49.3734502  24.0914120  38.0191806  49.3326022
  23.4982700  36.8965493  50.2882002  23.9274253  36.5299114  48.8026874
  22.1842221  38.0889109  47.4583017  21.7240154  37.4519584  46.5095935
  22.7699870  39.2743199  47.3096879  23.0724475  39.7429548  47.9636703
  22.9583292  39.9036149  46.0078046  22.6277383  39.3078988  45.3174068
  22.1982025  41.2398520  45.8906346  22.4812550  41.8382010  46.5993946
  22.4829941  41.9077206  44.5470070  21.9937514  42.7442253  44.5006988
  23.4359728  42.0762305  44.4751945  22.1967974  41.3155138  43.8344541
  20.7096962  41.0046370  46.0223267  20.2480258  41.8555131  45.9461149
  20.4206122  40.4071716  45.3152521  20.5285981  40.6057941  46.8875301
  24.4495481  40.0948308  45.7902188  25.1658893  40.5494176  46.6926573
  24.9119450  39.7243679  44.6013107  24.4019956  39.4390942  43.9701756
  26.3112065  39.7530201  44.2169980  26.8399128  40.1355939  44.9342601
  26.8250447  38.3343648  43.9255493  26.3438536  37.9748743  43.1633042
  27.7741909  38.3761702  43.7284481  26.6332249  37.3933110  45.0805844
  25.4645058  36.6542870  45.2075218  24.7987293  36.7363726  44.5630426
  25.2819722  35.7968846  46.2593667  24.4939327  35.3085891  46.3343888
  26.2669328  35.6780823  47.2180870  26.0954238  34.8336294  48.2788631
  25.3504997  34.4494553  48.2233716  27.4369292  36.4033762  47.1100401
  28.1003314  36.3202840  47.7572304  27.6083631  37.2543170  46.0527141
  28.3955300  37.7440786  45.9844809  26.5001143  40.6001362  42.9655096
  25.6679361  40.5440197  42.0590481  27.5806168  41.3658472  42.8708155
  28.5765055  41.6785959  43.9034505  29.0358278  40.8727890  44.1861575
  28.1565489  42.1317102  44.6526466  29.5334851  42.6116698  43.1887469
  30.2932985  42.1189027  42.8423695  29.8289797  43.3178065  43.7846485
  28.7733089  43.2037064  42.0589063  29.3661829  43.4798644  41.3420609
  28.2143085  43.9393322  42.3581691  27.9056239  42.0298142  41.6067020
  27.1067798  42.3517911  41.1612483  28.6879479  41.1006983  40.6926928
  29.2816993  40.1127547  41.1295265  28.7038665  41.4492530  39.4063008
  28.2812590  42.1243982  39.0814089  29.4611114  40.6933404  38.4173405
  30.2359765  40.2946980  38.8420961  28.6174765  39.5713331  37.7985273
  28.0906658  39.1512405  38.4961768  28.0335620  39.9512848  37.1235128
  29.4416618  38.5973857  37.1966843  28.9694220  37.9891418  36.8615395
  29.9441933  41.6308927  37.3239181  29.2164987  42.5428452  36.9175081
  31.1659777  41.3959540  36.8496958  31.6747394  40.7681673  37.1447947
  31.7803143  42.1707194  35.7809030  31.2203205  42.9341955  35.5695217
  33.1689169  42.6784342  36.1693686  33.7336814  41.9183088  36.3806394
  33.5443167  43.1695072  35.4219041  33.1565893  43.5937530  37.3660617
  32.3388198  44.5101747  37.4597122  34.0808054  43.3653773  38.2799518
  34.1212240  43.8586707  38.9836029  34.6366872  42.7176360  38.1762180
  31.9647749  41.3388100  34.5180581  32.2202785  40.1311773  34.5763259
  31.9153996  42.0213828  33.3829856  31.5498873  42.7957309  33.3006034
  32.4849627  41.5082793  32.1516036  33.1050550  40.7892087  32.3494824
  31.7803521  41.1675071  31.5779913  33.2250670  42.6072579  31.4210670
  33.4785234  43.6729430  32.0007878  33.5898880  42.3623031  30.1601055
  33.3671755  41.6556995  29.7240524  34.4120600  43.2880135  29.3928406
  34.4346605  44.1466519  29.8447247  35.8448471  42.7696064  29.2788744
  36.0558232  42.2835014  30.0906163  35.8863198  42.1630698  28.5230045
  36.9415316  43.8105631  29.0799739  36.6967457  44.3960390  28.3467135
  37.0965794  44.6630636  30.3401755  37.7975571  45.3177310  30.1938748
  36.2561946  45.1126098  30.5217342  37.3319648  44.0862439  31.0839098
  38.2366774  43.1164712  28.7186160  38.9285585  43.7854018  28.5939904
  38.4828113  42.5148856  29.4378530  38.1082526  42.6168881  27.8979249
  33.8208617  43.4942506  28.0043569  33.1470733  42.6129496  27.4565835
  34.0655126  44.6843804  27.4525001  34.4628364  45.3234765  27.8688652
  33.6906854  45.0440748  26.0862294  33.4538626  44.2451140  25.5887672
  32.5025644  46.0270871  26.0466040  32.7761493  46.8515596  26.4795007
  32.1225854  46.3498613  24.6053043  31.3751548  46.9676104  24.6064931
  32.8851494  46.7521035  24.1602567  31.8714242  45.5280695  24.1539415
  31.2965522  45.4701183  26.7990542  30.8846366  44.7758580  26.2608941
  31.5982609  45.0973065  27.6423271  30.2384413  46.5133284  27.1029584
  29.5072221  46.0904800  27.5796111  30.6316995  47.2103128  27.6512418
  29.9174745  46.8878752  26.2681776  34.9107411  45.6830597  25.4407191
  35.4743844  46.6291685  25.9946600  35.3154310  45.1797571  24.2751457
  34.8995957  44.5609634  23.8471556  36.5275011  45.6467977  23.6093282
  36.8316409  46.4621961  24.0364751  37.6650910  44.6146981  23.6801633
  37.4207524  43.8374269  23.1539248  38.9595650  45.1964258  23.0995955
  39.6588433  44.5264880  23.1563695  38.8085055  45.4397306  22.1727056
  39.2100128  45.9806587  23.6120060  37.8742769  44.1649546  25.1191258
  38.5949831  43.5156973  25.1444331  38.1055488  44.9368267  25.6595810
  37.0546401  43.7643011  25.4469037  36.1833671  45.9697130  22.1633252
  35.6597437  45.1123177  21.4390837  36.4676534  47.2034603  21.7494341
  36.8053784  47.8192949  22.2447669  36.2150672  47.6081410  20.3733982
  35.3230025  47.3283699  20.1175104  36.2962690  49.1281154  20.2420469
  35.6357958  49.5282929  20.8299128  37.1851865  49.4175289  20.5006033
  36.0347681  49.6284201  18.8468647  36.8466446  49.5432631  18.3211930
  35.3221485  49.1039926  18.4488759  35.6149693  51.0824491  18.8321055
  34.8555111  51.2043486  19.4228641  36.3588182  51.6349070  19.1206730
  35.2264965  51.4992046  17.4938852  35.3219757  50.9315125  16.8539653
  34.7333601  52.6960416  17.1924957  34.5565257  53.6079202  18.1416516
  34.7668944  53.4268818  18.9562191  34.2365363  54.3798472  17.9422062
  34.4050231  52.9771047  15.9377095  34.5173342  52.3874424  15.3220794
  34.0844237  53.7499301  15.7391700  37.2127359  46.9459186  19.4291315
  38.4186856  46.9269539  19.6892753  36.7010726  46.3951554  18.3294013
  35.8577677  46.3581864  18.1658042  37.5199080  45.7921158  17.2777798
  38.4544626  46.0023502  17.4314460  37.3607124  44.2798510  17.2529404
  37.5083556  43.9301404  18.1450721  36.4646220  44.0601835  16.9535055
  38.3456176  43.6092240  16.3172445  39.2433530  44.3121041  15.8019574
  38.2239985  42.3854310  16.1011853  37.0864565  46.4318209  15.9619290
  36.2079266  45.9112711  15.2695685  37.7078127  47.5585921  15.6261018
  38.3749178  47.8892126  16.0553836  37.3009073  48.3415691  14.4796602
  37.9390879  49.0559912  14.3300590  37.2775235  47.7767749  13.6917092
  35.9285253  48.9530514  14.6755605  35.7344729  49.8068314  15.5449036
  34.9626482  48.5187668  13.8686452  35.0798272  47.9273049  13.2547658
  33.5954501  49.0113818  13.9508015  33.5809533  49.7974566  14.5192031
  33.1127418  49.4302034  12.5614304  33.1361378  48.6614993  11.9718613
  32.2062196  49.7708274  12.6298617  33.9800514  50.5188947  11.9521331
  34.9157656  50.9864757  12.6383896  33.7321727  50.9084323  10.7907586
  32.6591308  47.9790214  14.5648407  31.4384816  48.0987688  14.4365901
  33.2162235  46.9665960  15.2286497  34.0676322  46.8623523  15.2971084
  32.4642694  45.9237496  15.9098938  31.5222674  46.1543439  15.9244674
  32.6286248  44.5642540  15.2196033  33.5510201  44.2787891  15.3190902
  32.0446696  43.9250598  15.6567361  32.3036677  44.5383624  13.7438684
  31.3422573  44.5956554  13.6291362  32.7381220  45.2881375  13.3094483
  32.7856769  43.2604286  13.0784112  33.0194022  42.2641067  13.7988168
  32.9394452  43.2525746  11.8409005  32.9683862  45.8307232  17.3427185
  34.0125940  46.3918622  17.6858394  32.2274807  45.1022872  18.1799019
  31.4969812  44.7095598  17.9538561  32.5867777  44.8993402  19.5745464
  33.4198923  45.3613360  19.7612599  31.5120702  45.4518869  20.5094720
  30.6908671  44.9597125  20.3562900  31.8039306  45.3181066  21.4247656
  31.1946355  46.9330224  20.3424898  30.9287089  47.1035142  19.4248104
  30.0405618  47.3033369  21.2479460  29.8434383  48.2455848  21.1378357
  29.2663034  46.7712026  21.0048451  30.2919071  47.1217480  22.1679156
  32.4119232  47.7823987  20.6542966  32.1819985  48.7184010  20.5404354
  32.6846852  47.6176573  21.5708762  33.1291083  47.5416734  20.0469426
  32.7849413  43.4195564  19.8729119  32.0300764  42.5670792  19.3865614
  33.8068441  43.1362328  20.6774766  34.4203604  43.7042371  20.8783243
  34.0042553  41.8374612  21.3102041  33.4894461  41.1633332  20.8406416
  35.4809266  41.4320988  21.2880862  35.7442400  41.2962506  20.3649501
  36.0004522  42.1600058  21.6644470  35.8593391  40.1615639  22.0577342
  35.5371089  40.2415347  22.9690154  35.2168929  38.9267588  21.4467183
  35.4801676  38.1471805  21.9610509  34.2528782  39.0290176  21.4699764
  35.5181409  38.8355678  20.5291243  37.3725031  40.0043467  22.1132451
  37.5874873  39.1957170  22.6028988  37.7164632  39.9449428  21.2072381
  37.7525985  40.7758517  22.5611073  33.5120771  41.9141449  22.7483068
  33.8967032  42.8213735  23.4984214  32.6745674  40.9584591  23.1298773
  32.4081158  40.3248920  22.6129195  32.1137784  40.8803649  24.4688571
  32.2628574  41.7190309  24.9340933  30.6099505  40.6280795  24.3897132
  30.2091533  41.3678483  23.9072519  30.4717033  39.8097718  23.8872989
  29.8431031  40.4817465  25.6951456  30.2646213  39.7974366  26.2381128
  29.8727497  41.7823080  26.4674364  29.3795205  41.6687686  27.2954218
  30.7952330  42.0134222  26.6607046  29.4634605  42.4780457  25.9302014
  28.4245558  40.0552158  25.4168364  27.9515488  39.9667706  26.2589409
  27.9956137  40.7273986  24.8643394  28.4367300  39.2033730  24.9529296
  32.7905099  39.7623347  25.2495088  32.9609849  38.6574291  24.7336301
  33.1687564  40.0363698  26.4962916  33.1138046  40.8144630  26.8588275
  33.7241527  39.0121781  27.3726205  33.8189713  38.1822754  26.8796875
  35.0940001  39.3931698  27.9502831  34.9674089  40.1378408  28.5593241
  35.6577792  38.2177020  28.7460560  36.5228348  38.4674792  29.1073235
  35.0461562  38.0045306  29.4683941  35.7534786  37.4534944  28.1565602
  36.0756665  39.8322167  26.8590641  35.7011423  40.6010334  26.4008093
  36.9110299  40.0851606  27.2832946  36.3975403  38.7941171  25.8104252
  37.0232017  39.1733579  25.1734855  36.7918257  38.0210923  26.2431107
  35.5782652  38.5391305  25.3582127  32.7183051  38.7978810  28.4884935
  32.4883392  39.7016151  29.3039867  32.1273858  37.6032136  28.5048435
  32.2713846  37.0145558  27.8941002  31.1854941  37.1220121  29.5101151
  31.0464521  36.1737654  29.3589845  31.7886858  37.2654425  30.9065210
  32.1851865  38.1473210  30.9932757  31.0900337  37.1467602  31.5692794
  32.8788287  36.2245601  31.1693578  32.7550006  35.1015985  30.6575553
  33.8608085  36.5242984  31.8765987  29.8144518  37.7894739  29.4251283
  29.6789644  38.9396382  28.9958100  28.7805633  37.0366648  29.7878722
  28.8411041  36.2072151  30.0098474  27.4289306  37.5605390  29.8428885
  27.2618275  38.1092929  29.0603748  26.4174077  36.4198744  29.8624518
  25.5221313  36.7799707  29.7579919  26.6726961  35.4325034  28.7352316
  26.0181869  34.7174615  28.7673851  26.6060722  35.8826108  27.8786719
  27.5606330  35.0519047  28.8241745  26.5150932  35.7378080  31.1167504
  25.9626560  35.1055577  31.1432587  27.2657543  38.4277169  31.0850911
  28.1958792  38.6152619  31.8708796  26.0629439  38.9672962  31.2633725
  25.4122924  38.8830203  30.7068483  25.7283892  39.7660686  32.4348351
  26.5515040  40.0648593  32.8517141  24.9449231  41.0093357  32.0111266
  24.7295673  41.5308907  32.8004150  25.4913167  41.5346999  31.4055009
  24.1302880  40.7312340  31.5650918  24.9502773  38.9600575  33.4762165
  24.1799840  39.5343333  34.2490777  25.1401317  37.6343678  33.5002830
  25.6193964  37.2175971  32.9205498  24.5617705  36.7447603  34.5040831
  24.9560986  35.8641451  34.3999769  24.9004590  37.2377149  35.9122333
  25.8163579  37.5582172  35.9163972  24.2997043  37.9644864  36.1402838
  24.7785195  36.1865807  36.9905805  24.0993355  34.9999166  36.9230063
  23.6264221  34.6991410  36.1809611  24.2306894  34.3095126  38.1111087
  23.8851715  33.5412084  38.2849219  24.9999890  35.0519243  38.9690924
  25.4006720  34.7809245  40.2769613  25.1528265  33.9929204  40.7038516
  26.1767832  35.7164544  40.9049798  26.4592915  35.5611674  41.7779060
  26.5527731  36.9079697  40.2646800  27.0792231  37.5250367  40.7191915
  26.1485491  37.1805470  38.9694196  26.4051700  37.9696809  38.5484214
  25.3573700  36.2424468  38.3006905  23.0502171  36.5931810  34.3397416
  22.2672313  37.0968443  35.1564181  22.6344424  35.9142374  33.2848800
  23.1532811  35.6232825  32.6633226  21.2404200  35.5939117  33.0778171
  21.1424363  34.6379553  32.9542508  20.7281168  35.8590238  33.8585456
  20.6664691  36.3010942  31.8598425  21.1802076  37.3156380  31.3840279
  19.5524204  35.7550806  31.3763275  19.1239595  35.1074665  31.7465899
  18.9580367  36.2378548  30.1364344  19.6220202  36.2012545  29.4310215
  17.7929684  35.3401756  29.7365993  17.4067192  35.6718969  28.9113675
  18.1211242  34.4369174  29.6092874  17.1278402  35.3542518  30.4426053
  18.4895661  37.6803933  30.2691778  18.7270005  38.5080709  29.3831170
  17.8109976  38.0020385  31.3686677  17.6531900  37.4740058  32.0277605
  17.2711605  39.3483483  31.5112534  16.7268903  39.5532886  30.7340415
  16.3776420  39.4306738  32.7430672  15.6852468  38.7535317  32.6779105
  16.9172696  39.2787944  33.5351787  15.7091372  40.7697030  32.8835027
  16.3846013  41.4659614  32.8697360  15.0859998  40.8935003  32.1502088
  14.9437251  40.8852200  34.1730752  14.1416881  40.3411371  34.1240093
  15.5052729  40.5970452  34.9097965  14.5365753  42.3185436  34.4114351
  15.2874719  42.9024725  34.2209849  13.7835490  42.5392031  33.8401184
  14.1292521  42.5257032  35.8225434  13.8921301  43.3742464  35.9495102
  13.4396152  41.9992083  36.0193634  14.8071642  42.3301877  36.3658130
  18.3852530  40.3859506  31.5912072  18.2954271  41.4438768  30.9606896
  19.4376441  40.1073737  32.3718569  19.5264239  39.3927062  32.8411995
  20.5522862  41.0467913  32.4755904  20.2111497  41.9201177  32.7276003
  21.5452701  40.5943341  33.5454050  21.6703053  39.6346669  33.4719265
  22.3899813  41.0495706  33.4033499  21.0854071  40.8956800  34.9469476
  20.0058257  41.4456922  35.1691581  21.9128190  40.5239497  35.9135293
  21.7061316  40.6689510  36.7354691  22.6576394  40.1416957  35.7190008
  21.2741338  41.1841215  31.1443708  21.7278451  42.2777800  30.7836893
  21.4023073  40.0834252  30.4048789  21.0714593  39.3137345  30.5998787
  22.1522398  40.1289430  29.1582273  22.9792805  40.6127013  29.3082326
  22.5111170  38.7117247  28.7267965  21.7002308  38.1879410  28.6306706
  23.2499377  38.7096057  27.3929654  23.4682694  37.8005868  27.1367097
  22.6925075  39.1051376  26.7048803  24.0698799  39.2215638  27.4671790
  23.3504579  38.1139840  29.7169145  22.9501187  38.0863658  30.4549109
  21.3714318  40.8652112  28.0723594  21.9674617  41.5393308  27.2246034
  20.0414944  40.7633078  28.0881122  19.5914639  40.2326092  28.5928236
  19.2357912  41.5941644  27.2029537  19.5243137  41.4513522  26.2882442
  17.7649954  41.1956762  27.3020697  17.2448541  41.7587092  26.7058919
  17.6718206  40.2660110  27.0430830  17.4659493  41.3173452  28.2163104
  19.4224008  43.0734664  27.5294997  19.5668054  43.9010802  26.6250144
  19.4466641  43.4237788  28.8199254  19.3394273  42.8831757  29.4802787
  19.6661343  44.8168399  29.1989278  19.0225925  45.3764251  28.7361121
  19.4533447  44.9919879  30.6988107  19.6023916  45.9221308  30.9320275
  18.5430536  44.7377713  30.9196773  20.0799030  44.4259615  31.1742388
  21.0620552  45.2766023  28.8020934  21.2584733  46.4389277  28.4197314
  22.0376436  44.3725568  28.8929451  21.9318945  43.5771180  29.2021267
  23.4012896  44.6650476  28.4647493  23.7485028  45.4017998  28.9911609
  24.2859242  43.4399086  28.7200497  24.4028648  43.3479751  29.6780623
  23.8230214  42.6584979  28.3785774  25.6830523  43.4409642  28.0945485
  25.5966762  43.5041029  27.1304802  26.4812596  44.6339439  28.5693470
  27.3600562  44.6095062  28.1587703  26.0187159  45.4466603  28.3118369
  26.5666907  44.5930923  29.5349617  26.4171554  42.1408499  28.4188704
  27.2976128  42.1661341  28.0130879  26.4984293  42.0565828  29.3816905
  25.9092372  41.3949903  28.0626087  23.4494979  45.0702483  26.9960181
  24.0771396  46.0732315  26.6348527  22.8106804  44.2884182  26.1236948
  22.3880418  43.5659833  26.3226157  22.7962548  44.6395160  24.7083853
  23.7110837  44.7119811  24.3937540  22.1103618  43.5370659  23.9092722
  21.2288848  43.3898869  24.2851282  22.0245445  43.8342465  22.9894434
  22.8349635  42.1836188  23.8893408  22.9294902  41.8657227  24.8013588
  22.0178472  41.1571317  23.1219151  22.4929917  40.3114401  23.1225852
  21.1557524  41.0531880  23.5551474  21.8963039  41.4681913  22.2117310
  24.2284155  42.2967307  23.2904266  24.6473809  41.4220086  23.2975107
  24.1543047  42.6208077  22.3794032  24.7505826  42.9191453  23.8217434
  22.1128348  45.9860302  24.4770379  22.5309666  46.7633289  23.6113835
  21.0595031  46.2812923  25.2388690  20.7318217  45.7723848  25.8496079
  20.3680495  47.5567496  25.0670563  20.1722861  47.6829347  24.1246578
  19.0408869  47.5475888  25.8249702  18.5983539  48.4011509  25.6971681
  18.4843347  46.8310123  25.4786701  19.2173483  47.4026308  26.7674693
  21.2364731  48.7240430  25.5229902  21.2107329  49.8008751  24.9113563
  22.0096969  48.5351227  26.5985268  22.0319359  47.8140304  27.0680695
  22.9068158  49.5895883  27.0620417  22.4118177  50.4226970  27.1167748
  23.4429781  49.2647332  28.4593477  23.8356704  48.3787963  28.4399941
  24.1241240  49.9172906  28.6870099  22.4011668  49.2818310  29.5732098
  21.6302163  48.7665782  29.2880011  22.7873436  48.8823729  30.3684297
  21.9162975  50.6817653  29.9413613  22.4451128  51.6860956  29.4085611
  20.9958842  50.7741884  30.7796974  24.0620968  49.7916383  26.0898372
  24.5100949  50.9231340  25.8787441  24.5550647  48.7083697  25.4837631
  24.3035205  47.9006170  25.6407602  25.6011735  48.8322743  24.4691828
  26.3549191  49.3058337  24.8558985  26.0995546  47.4385868  24.0321880
  25.3292877  46.8768448  23.8509373  26.9385478  47.5415592  22.7620379
  27.2394939  46.6544225  22.5099071  26.3953824  47.9215230  22.0548441
  27.7037618  48.1135140  22.9352780  26.9217172  46.7963820  25.1585882
  27.7213615  47.3276840  25.2959826  26.3869628  46.8010866  25.9693981
  27.3606481  45.3716332  24.9143597  27.8696966  45.0624875  25.6806792
  26.5757019  44.8154490  24.7927717  27.9130756  45.3440422  24.1182765
  25.0953182  49.6555326  23.2857099  25.7673141  50.5822338  22.8159179
  23.8993992  49.3374274  22.7848731  23.3925310  48.7047376  23.0731930
  23.3630794  50.0945562  21.6563984  23.9957591  50.0582913  20.9218487
  22.0481170  49.4805534  21.1789778  22.2105162  48.5600444  20.9196350
  21.4088896  49.5083375  21.9075945  21.4210998  50.1973920  19.9808206
  20.5766401  49.7706142  19.7658938  21.2724957  51.1278095  20.2131353
  22.2966260  50.1590666  18.7363078  23.0460314  49.1761320  18.5610339
  22.2356665  51.1150130  17.9338487  23.1583636  51.5548557  22.0319071
  23.4354279  52.4573127  21.2330387  22.6793512  51.8077729  23.2467174
  22.5043202  51.2108085  23.8411514  22.4091797  53.1776649  23.6655971
  21.8707606  53.6160334  22.9886747  21.6168406  53.1760835  24.9747889
  20.7736884  52.7200843  24.8261449  22.1301327  52.7041374  25.6482212
  21.3021318  54.5679507  25.5218073  22.1079894  55.1067214  25.5113822
  20.6141278  54.9791733  24.9752860  20.7927429  54.4926538  26.9566423
  19.8837000  53.8922962  26.9884644  21.5527665  54.0339424  27.5888139
  20.4913468  55.8988481  27.4630957  21.4006901  56.4997003  27.4320892
  19.7307132  56.3584579  26.8318300  19.9999003  55.8258713  28.8470025
  20.7044208  55.4010714  29.4324578  19.8008456  56.7581096  29.1826197
  19.1576730  55.2702620  28.8761278  23.7021129  53.9713606  23.8263693
  23.8050045  55.1089782  23.3536563  24.6999036  53.3911732  24.4973658
  24.7146640  52.5646491  24.7319741  25.8837815  54.1483204  24.8957956
  25.6414755  55.0847176  24.9652662  26.3703566  53.6905870  26.2766862
  26.5531871  52.7385566  26.2422766  27.1844297  54.1718003  26.4955418
  25.3781623  53.9291788  27.3985821  25.0988130  54.8576726  27.3847201
  24.6123184  53.3469563  27.2759402  25.9816206  53.6366490  28.7539557
  27.1229802  54.0066980  29.0263650  25.2257989  52.9627836  29.6064543
  24.4326013  52.7189389  29.3781990  25.5250409  52.7711678  30.3898026
  27.0483918  54.0456463  23.9185721  27.8825340  54.9555199  23.8848103
  27.1391851  52.9791606  23.1365435  26.5611938  52.3420923  23.1263399
  28.2436301  52.7774611  22.2059687  28.8811548  53.4998502  22.3239736
  28.9833449  51.4533358  22.5060011  28.3686813  50.7179214  22.3555969
  30.1773517  51.2830641  21.5626214  30.6247522  50.4478195  21.7682552
  29.8564616  51.2698384  20.6466222  30.7874812  52.0259432  21.6893250
  29.4273784  51.4220197  23.9762536  30.0436094  52.1553067  24.1298228
  28.6440621  51.5312735  24.5381007  30.1218984  50.1394263  24.3989381
  30.3654986  50.2066596  25.3351724  29.5147783  49.3944929  24.2674677
  30.9176260  50.0188540  23.8577756  27.7615247  52.8245995  20.7573075
  28.3293836  53.5333580  19.9246690  26.7111009  52.0800925  20.4406165
  26.3085076  51.5404701  20.9761837  26.1537589  52.1378101  19.1052051
  25.2406110  51.8117131  19.1316211  26.1330417  53.0628371  18.8130583
  26.9003812  51.3400670  18.0633735  26.7469520  51.6134005  16.8677949
  27.7090522  50.3659459  18.4788880  27.8919974  50.2288932  19.3075343
  28.3747979  49.4250114  17.5941333  28.1808641  49.6548922  16.6715552
  29.8961023  49.4335512  17.7876745  30.0795495  49.2635349  18.7244047
  30.2701802  48.7147500  17.2544958  30.6465011  50.7099959  17.4079737
  30.2352478  51.4657606  17.8551832  32.0789314  50.5967993  17.8919811
  32.5577595  51.4055973  17.6518759  32.0780197  50.4854441  18.8561275
  32.4948159  49.8284196  17.4703336  30.6117890  50.9669832  15.9100707
  31.0993252  51.7844032  15.7191572  31.0258260  50.2200150  15.4515974
  29.6888570  51.0594549  15.6274162  27.8553373  48.0183851  17.8610588
  27.4317601  47.7141445  18.9813431  27.8740823  47.1425404  16.8624430
  28.3367302  47.3583284  15.4797856  29.2861132  47.5569662  15.4694987
  27.8217651  48.0647938  15.0583372  28.0693360  46.0379784  14.8021440
  28.8742306  45.4963623  14.7851228  27.7373669  46.1795187  13.9018197
  27.0218780  45.3465538  15.6169739  27.1156985  44.3833511  15.5546824
  26.1331532  45.6271179  15.3474391  27.3018854  45.8059510  17.0486918
  26.4713943  45.8528363  17.5467995  28.2682944  44.8599777  17.7433934
  29.4705440  44.8592997  17.4751671  27.7213370  44.0453745  18.6398756
  26.9114158  44.1101718  18.9221430  28.4714063  42.9431101  19.2368264
  29.3907527  43.2147535  19.3833768  27.8656293  42.5101828  20.5794887
  26.9705191  42.1709673  20.4257532  28.6939467  41.3877402  21.1917384
  28.2972686  41.1286843  22.0380779  28.7003954  40.6320987  20.5833238
  29.5995556  41.7059825  21.3347080  27.7625165  43.6737416  21.5560887
  27.3763092  43.3550964  22.3868890  28.6511198  44.0284844  21.7187441
  27.1971954  44.3602605  21.1701847  28.4573226  41.7854598  18.2483060
  27.3915547  41.2485071  17.9340154  29.6348669  41.3884790  17.7648013
  30.3946143  41.7236925  17.9892045  29.7181129  40.3132194  16.7799821
  28.8274917  40.1433490  16.4348489  30.6003838  40.7365247  15.5988146
  30.7117181  39.9862554  14.9938826  29.9414280  41.8816301  14.8319815
  30.5019909  42.1458445  14.0864595  29.0776657  41.6000146  14.4932229
  29.8170881  42.6438413  15.4185219  31.8813117  41.1594096  16.0783738
  32.3672073  41.3914634  15.4325739  30.2464867  39.0080539  17.3449759
  29.9155386  37.9458444  16.8100765  31.0504717  39.0577607  18.4054831
  31.3028075  39.7871311  18.7837164  31.5861201  37.8570349  19.0307546
  31.0233758  37.0992689  18.8061225  33.0178742  37.5477072  18.5696836
  33.5868412  38.2977889  18.8028145  33.3256076  36.7498129  19.0272541
  33.1611675  37.3068641  17.0726998  32.5353927  36.6186992  16.7984206
  32.9818973  38.1334480  16.5970158  34.5735720  36.8427071  16.7101910
  34.8525702  36.1554252  17.3356457  34.5702967  36.4902010  15.8069470
  35.5446142  37.9337968  16.7699286  35.2609781  38.7100950  17.0056524
  36.8407133  37.8067049  16.4849453  37.3441504  36.6293115  16.1282702
  36.8320796  35.9399501  16.0752307  38.1818590  36.5572650  15.9480632
  37.6384216  38.8630142  16.5584920  37.3193753  39.6269653  16.7914474
  38.4756830  38.7821155  16.3801393  31.5739985  38.0291323  20.5407379
  31.7134314  39.1395285  21.0556396  31.4404106  36.9099158  21.2416529
  31.3210768  36.1355501  20.8883170  31.4846033  36.8855614  22.6918583
  31.9344912  37.6808015  23.0174763  30.0760400  36.8465414  23.2832869
  30.1405888  36.8300981  24.2503733  29.5918907  37.6370985  22.9956742
  29.6235717  36.0481497  22.9678871  32.2870837  35.6637976  23.1224992
  32.2599097  34.6241577  22.4595925  33.0171012  35.8134560  24.2195234
  33.0789852  36.5585844  24.6448503  33.7969562  34.7443247  24.8356836
  33.6249869  33.9071215  24.3767639  35.3085364  35.0432803  24.7733221
  35.4716056  35.9143285  25.1684037  36.1026482  34.0087069  25.5778451
  37.0478154  34.2207493  25.5205205  35.8127073  34.0371718  26.5023379
  35.9384320  33.1272470  25.2066650  35.8093317  35.0860885  23.3307004
  36.7610678  35.2751748  23.3314694  35.6441248  34.2248490  22.9145186
  35.3335664  35.7823056  22.8519864  33.3428817  34.6119712  26.2859736
  33.2525276  35.6155802  26.9992976  33.0683318  33.3832373  26.7202134
  33.0277824  32.6932141  26.2082479  32.8044670  33.0806406  28.1252208
  32.5848248  33.8986798  28.5977493  31.6333113  32.1047665  28.2679403
  31.8198778  31.3105989  27.7428462  31.5355794  31.8658811  29.2028479
  30.4178462  32.6784651  27.8122337  30.2404629  33.3671570  28.2593564
  34.0585435  32.4793355  28.7501994  34.6582764  31.5629217  28.1752818
  34.4453596  32.9777947  29.9325279  33.9748491  33.5134061  30.4124500
  35.7420023  32.6339708  30.5107571  36.3445863  32.4089673  29.7852615
  36.3447542  33.8468352  31.2404278  37.1813029  33.5844743  31.6554628
  36.6386233  34.9803017  30.2535987  37.0185070  35.7388287  30.7241220
  37.2687840  34.6792875  29.5812060  35.8191264  35.2588365  29.8163458
  35.4456755  34.3174958  32.2522896  34.7163618  34.5464031  31.9051038
  35.7084928  31.4333991  31.4546590  36.7790022  30.9379202  31.8157741
  34.5318134  30.9584040  31.8596888  33.7961333  31.4021633  31.8161510
  34.3728891  29.6189532  32.4263841  34.8111771  28.9859063  31.8359494
  35.0395652  29.4818528  33.8125834  35.0522500  28.5427050  34.0537196
  35.9502745  29.8086514  33.7474045  34.3768599  30.2257571  34.9444390
  34.6431877  31.5464547  35.2335864  35.1559381  32.0624446  34.7735501
  33.9607415  31.9095073  36.3081687  33.9563883  32.7579251  36.6891231
  33.2868001  30.8615902  36.7467375  33.5431714  29.7913674  35.9231642
  33.1904715  28.9354142  36.0068658  32.8795692  29.3018122  32.3998645
  32.0908949  30.0617543  31.8371206  32.4977482  28.1623205  32.9813380
  32.9752312  27.7252862  33.5474722  31.2018954  27.5456846  32.6971062
  30.9349612  27.8102884  31.8024252  31.3402548  26.0112419  32.6926171
  30.5456692  25.6307072  32.2866010  32.1205083  25.7727023  32.1686093
  31.4981590  25.3892770  34.0525921  32.7331016  25.3677848  34.6824588
  33.4702643  25.7510174  34.2656497  32.8785655  24.7875710  35.9297391
  33.7098210  24.7828844  36.3461852  31.7893503  24.2190611  36.5603482
  31.8886426  23.8292867  37.3989440  30.5583533  24.2267120  35.9435524
  29.8224484  23.8427450  36.3652481  30.4168155  24.8060801  34.6953390
  29.5828917  24.8108780  34.2847126  30.0731126  27.9570512  33.6406949
  28.9359890  27.5249355  33.4337895  30.3288697  28.7776526  34.6526445
  31.0925185  29.1383448  34.8135684  29.2785226  29.1304821  35.5967146
  28.7798820  28.3308255  35.8287639  29.8739211  29.7053282  36.8790603
  30.5053193  30.4038908  36.6434854  29.1576827  30.0778730  37.4159392
  30.5969975  28.6986946  37.7173224  31.6082399  29.0429900  38.5866231
  32.0568760  27.9537034  39.1873963  32.7389096  27.9235490  39.8189197
  31.3742963  26.9168330  38.7371978  31.4863812  26.0997544  38.9805075
  30.4551078  27.3562691  37.8160798  29.8480875  26.8304936  37.3481412
  28.3018553  30.1420860  34.9922814  28.5887976  30.8211188  34.0076980
  27.1488258  30.2825547  35.6517339  26.9829117  29.9435136  36.4248113
  26.0430197  31.0518572  35.0836217  25.8609224  30.7226558  34.1891855
  24.7862233  30.8493199  35.9206248  25.0426491  30.6696888  36.8387624
  24.2435669  31.6515325  35.8767724  23.9517696  29.6914087  35.4330046
  23.2483738  29.8596947  34.4117014  24.0162492  28.6123682  36.0574596
  26.3571849  32.5367208  34.9772755  25.7667000  33.2277879  34.1405421
  27.2636568  33.0593833  35.8088761  27.6618157  32.6406324  36.4458581
  27.6351739  34.4573023  35.6507573  26.8243582  34.9754758  35.5247806
  28.3205387  34.9805878  36.9189770  28.6299068  35.8852011  36.7567417
  27.6781362  34.9793980  37.6454889  29.5221789  34.1490826  37.3583233
  29.5063804  32.9062174  37.2865147  30.5019994  34.7667215  37.8294443
  28.5183120  34.6911928  34.4284160  28.8145755  35.8481662  34.1130708
  28.9224171  33.6292715  33.7280938  28.7462477  32.8165320  33.9474107
  29.7118676  33.7434896  32.5061523  29.9593416  34.6730669  32.3834509
  31.0032455  32.9277512  32.6282423  30.7812211  31.9847369  32.5915518
  31.5867370  33.1558988  31.8875647  31.7794946  33.1723535  33.9216367
  31.1835701  33.0513573  34.6779348  32.5175486  32.5461568  33.9743896
  32.3431382  34.5694259  33.9875439  33.3073901  34.5285901  33.8913944
  31.9585115  35.1027602  33.2736428  32.0406739  35.2206655  35.2562705
  31.7749237  34.7258065  35.9080238  32.1468284  36.5258810  35.4727899
  32.5688573  37.3327667  34.5141924  32.7678560  37.0134870  33.7406874
  32.6383594  38.1769770  34.6620616  31.8403929  37.0252297  36.6609785
  31.5697367  36.5046622  37.2896666  31.9152693  37.8702800  36.8039070
  28.9820981  33.2899151  31.2537000  29.2545070  33.8305178  30.1769489
  28.0927779  32.3018493  31.3576499  27.8832501  31.9209247  32.0998464
  27.3801724  31.7664207  30.2012358  27.7065991  32.2237160  29.4101399
  27.6549686  30.2563161  30.0017759  27.1765318  29.9561717  29.2123378
  29.1321555  29.9955239  29.7704160  29.2699619  29.0429819  29.6499043
  29.4165862  30.4752078  28.9763049  29.6322838  30.3065604  30.5415827
  27.1412935  29.4354503  31.1950999  27.3292214  28.4977600  31.0373154
  27.5939593  29.7334114  32.0002570  26.1848079  29.5721359  31.2842146
  25.8827449  32.0013262  30.2669268  25.1923342  31.7773320  29.2592474
  25.3395333  32.4069819  31.4139846  25.7749952  32.5344577  32.1437173
  23.9163465  32.6717089  31.5078181  23.4157129  31.9041775  31.1889898
  23.6726507  32.8443827  32.4308252  23.5519221  33.8803477  30.6687857
  24.0017544  35.0009100  30.9565424  22.7423998  33.6825531  29.6388129
  22.3355396  32.9417205  29.4813777  22.4658301  34.7207694  28.6647851
  21.5051424  34.8160175  28.5647800  22.8220531  35.5632857  28.9864192
  23.0588637  34.4462353  27.3009350  22.8181626  35.2219326  26.3674444
  23.8335366  33.3730706  27.1637149  24.0349086  32.8325176  27.8011204
  24.4196133  33.0224376  25.8706431  25.0004763  33.7444619  25.5855025
  25.2856897  31.7540304  26.0216916  24.9027649  31.1979767  26.7181474
  25.3254334  30.9328868  24.7467592  25.8791650  30.1501949  24.8924020
  24.4220105  30.6609468  24.5185058  25.6982062  31.4745248  24.0345832
  26.7037403  32.1449355  26.4652416  27.2383712  31.3411111  26.5571669
  27.0945932  32.7278684  25.7949326  26.6517617  32.6075056  27.3159602
  23.3337836  32.8539734  24.8142886  23.5191030  33.2324967  23.6508734
  22.1808270  32.2985418  25.1980536  22.0019426  32.0288964  25.9951312
  21.1038700  32.1105077  24.2299957  21.4502966  31.6266356  23.4639980
  19.9789344  31.2768749  24.8444833  19.7002536  31.6879887  25.6774716
  19.2337240  31.2463326  24.2239878  20.4021414  29.8488251  25.1426300
  21.5112077  29.4488239  24.7241841  19.6213700  29.1273968  25.8014245
  20.5637609  33.4502227  23.7354264  20.1759273  33.5745418  22.5706261
  20.5031738  34.4510288  24.6172736  20.6768617  34.3701561  25.4557228
  20.1261323  35.8038764  24.2128567  19.2468660  35.7780608  23.8031613
  20.0506375  36.7273356  25.4450412  20.8483410  36.6001208  25.9824754
  19.9877070  38.1995969  25.0376784  19.9418070  38.7467321  25.8373303
  20.7846081  38.4207795  24.5303865  19.1978491  38.3413411  24.4922226
  18.8450463  36.3700015  26.3055597  18.8192725  36.9623225  27.0728515
  18.0390094  36.4762724  25.7777643  18.9299300  35.4503926  26.6002174
  21.1119294  36.3356722  23.1803537  20.7204359  36.9432286  22.1762993
  22.4075030  36.1371452  23.4305514  22.7136486  35.7310057  24.1244236
  23.4355605  36.6119940  22.5138806  23.3264033  37.5670140  22.3807959
  24.8230074  36.3698632  23.1098051  24.9054287  35.4237808  23.3098472
  25.4849305  36.6165902  22.4454576  25.1572265  37.1360083  24.3919475
  24.4731597  36.9535903  25.0548792  26.4808397  36.6577888  24.9461057
  26.6801504  37.1510202  25.7568048  26.4160951  35.7101201  25.1424525
  27.1740918  36.8134602  24.2849756  25.1925653  38.6442746  24.1607488
  25.4076854  39.0856985  24.9970419  25.8702999  38.8449148  23.4964557
  24.3226089  38.9351303  23.8461826  23.3075458  35.9293821  21.1652252
  23.3516445  36.5823758  20.1191117  23.1204938  34.6118661  21.1735509
  23.0504422  34.1272984  21.8806406  23.0205733  33.8798332  19.9193110
  23.8107509  34.0547817  19.3849045  22.9625931  32.3807414  20.2023287
  23.7724304  32.1165430  20.6663241  22.1881271  32.1948022  20.7560056
  22.8507297  31.5488845  18.9529410  22.0822068  31.8451880  18.4407752
  23.6611619  31.6505986  18.4297365  22.6724384  30.0820184  19.2631752
  21.8558274  29.9642178  19.7738879  22.6183375  29.5866565  18.4309453
  23.7764670  29.5335480  20.0437917  24.5382944  29.4592811  19.6513322
  23.7029013  29.1408273  21.3119855  22.5654652  29.2206187  21.9902292
  21.8601596  29.5354701  21.6115121  22.5343481  28.9621614  22.8094804
  24.7822138  28.6476671  21.9063176  25.5232168  28.5922039  21.4745672
  24.7422934  28.3937426  22.7272881  21.8013986  34.3212753  19.1209378
  21.8655556  34.4519297  17.8888370  20.6682938  34.5271225  19.7996170
  20.5744579  34.4156024  20.6472727  19.4673774  34.9756720  19.1091424
  19.2657444  34.3545605  18.3927845  18.2809315  34.9848718  20.0738453
  17.4906270  35.2856587  19.5988610  18.1429844  34.0857901  20.4111413
  18.4763650  35.5879513  20.8083253  19.6654292  36.3521413  18.4945548
  19.0289734  36.6785867  17.4851117  20.5538055  37.1610464  19.0709619
  20.9934346  36.9602700  19.7824175  20.8689854  38.4798792  18.5438275
  20.0591286  38.8743606  18.1835255  21.3683477  39.3827621  19.6724269
  21.5752221  40.2574420  19.3086053  20.6736198  39.4587909  20.3456347
  22.1648630  38.9888369  20.0618269  21.9026474  38.4426450  17.4267856
  22.2782063  39.5053767  16.9260444  22.3620536  37.2588529  17.0203177
  22.1107438  36.5050416  17.3480522  23.3468566  37.1398124  15.9647456
  23.2264940  36.2874344  15.5180930  23.1967565  37.8435779  15.3137056
  24.7825118  37.2260963  16.4197845  25.6720786  37.4215878  15.5776105
  25.0386202  37.1111645  17.7205863  24.4326441  37.0332590  18.3269406
  26.3978776  37.1064411  18.2442332  26.9498199  37.6997362  17.7118511
  26.4252462  37.5961738  19.7064534  25.8714739  37.0055740  20.2415534
  27.8375571  37.5365743  20.2683618  27.8249882  37.8500516  21.1863945
  28.1528089  36.6204502  20.2345269  28.4130970  38.1045247  19.7328497
  25.8468436  39.0008866  19.8192431  25.8777070  39.2812152  20.7475131
  26.3758948  39.6048650  19.2740992  24.9289296  38.9900254  19.5066698
  26.9627940  35.6996476  18.1376718  26.2921198  34.7130446  18.4679683
  28.2030285  35.6018971  17.6789092  28.6616715  36.2630473  17.3751511
  28.9070160  34.3274025  17.6517974  28.2773349  33.6115382  17.4729984
  29.9686902  34.3232839  16.5583071  30.4223366  33.4656202  16.5618929
  29.5387322  34.4669942  15.7013354  30.6050379  35.0352034  16.7333646
  29.5332394  34.0885017  19.0189893  30.4097320  34.8489145  19.4489406
  29.0743694  33.0562875  19.7170474  28.5090422  32.4800303  19.4188565
  29.5083313  32.8113398  21.0888209  29.8725182  33.6317982  21.4564553
  28.3380022  32.3723294  21.9723952  28.6696963  32.1217410  22.8482156
  27.3467164  33.5245571  22.1414419  26.6054723  33.2437668  22.7011668
  27.7876861  34.2820398  22.5569978  27.0030282  33.7952583  21.2762337
  27.6618749  31.2553566  21.3808001  27.3664409  31.4671648  20.6230403
  30.6075340  31.7568929  21.1051950  30.5625455  30.7846098  20.3491502
  31.5994977  31.9681411  21.9764476  31.5888327  32.5980221  22.5621354
  32.8063843  31.1582028  22.0292730  32.6838998  30.3573534  21.4969799
  34.0262330  31.9215508  21.4898891  34.0240037  32.8104344  21.8774016
  34.8269933  31.4504910  21.7687846  34.1012283  32.0851575  19.9873670
  33.2986519  33.0061643  19.3283946  32.6851838  33.5079470  19.8140406
  33.3851270  33.1770278  17.9533424  32.8359724  33.7894041  17.5193913
  34.2904150  32.4325913  17.2425359  34.3928551  32.5937839  15.8834082
  33.8471020  33.1753515  15.6213764  35.1091736  31.5257247  17.8796177
  35.7214153  31.0241263  17.3918594  35.0128592  31.3619982  19.2453827
  35.5664871  30.7489781  19.6719464  33.1303751  30.7467060  23.4579390
  32.9452271  31.5182541  24.4081994  33.6909593  29.5462097  23.5920281
  33.7263054  28.9559954  22.9670667  34.3095785  29.1200876  24.8450434
  34.8274174  29.8539349  25.2110665  33.2631615  28.7071328  25.8866584
  33.7183592  28.4322923  26.6985985  32.6841971  29.4631998  26.0705279
  32.7421885  27.9683196  25.5333835  35.2582538  27.9665254  24.5514953
  35.1963807  27.3490164  23.4896708  36.1376737  27.6749635  25.5067112
  36.2235471  28.0985587  26.2493752  37.0511305  26.5574288  25.3281226
  37.5272971  26.6572899  24.4889670  38.0662329  26.5097756  26.4606540
  38.7928905  25.9168785  26.2166323  38.4019770  27.4047555  26.6292745
  37.4347714  26.0231636  27.6184995  37.9835669  25.9915228  28.2533990
  36.2665099  25.2473586  25.2920611  35.1561056  25.1635328  25.8229289
  36.8279451  24.1983356  24.6804680  38.0371084  24.1509874  23.8384298
  38.8339540  24.1227422  24.3897312  38.0533302  24.9018129  23.2251174
  37.8746529  22.8701794  23.0895821  38.7391276  22.4838688  22.8791975
  37.3550184  23.0086124  22.2823223  37.1280408  21.9597987  24.0183546
  37.7305683  21.5480022  24.6580071  36.6362275  21.2863906  23.5227214
  36.1505917  22.8893199  24.7464929  35.3143994  22.9194558  24.2551271
  35.8781297  22.4364024  26.1722545  34.8224933  21.8479617  26.4445603
  36.8067543  22.6938749  27.0952032  37.5630389  23.0713707  26.9408963
  36.5811377  22.3332639  28.4918784  36.4188945  21.3774994  28.5500280
  37.8228163  22.6556335  29.3239447  38.0026160  23.6066577  29.2646564
  37.6569882  22.4070632  30.2468888  38.9521000  21.9421081  28.8503099
  38.8097169  21.1155424  28.8963660  35.3601547  23.0538998  29.0501457
  34.4738651  22.4307674  29.6452783  35.3033074  24.3765259  28.8747362
  35.9139240  24.8493351  28.4980283  34.1445469  25.1354704  29.3353623
  34.0867698  25.0738035  30.3013540  34.3092741  26.6079596  28.9629557
  34.4991669  26.6763719  28.0141082  33.0393546  27.4046401  29.2528139
  33.1685237  28.3348215  29.0090152  32.2981851  27.0440010  28.7427214
  32.8250224  27.3538760  30.1975073  35.4051161  27.1596805  29.7022927
  35.2563599  27.0954487  30.5267846  32.8567402  24.5776524  28.7476610
  31.8582904  24.4111127  29.4591127  32.8621332  24.2753942  27.4527309
  33.5470019  24.3304567  26.9353944  31.6417555  23.8085335  26.8058851
  30.9379122  24.4576713  26.9620348  31.8586419  23.7100676  25.2923244
  32.6415503  23.1633303  25.1209809  31.0759320  23.3040124  24.8876017
  32.0778121  25.0643314  24.6356069  31.2942800  25.6179628  24.7809296
  32.8589978  25.4844094  25.0287092  32.3064712  24.9524954  23.1344011
  32.7129800  25.7726213  22.8122923  32.8887738  24.1978186  22.9558159
  31.0595867  24.7476557  22.4107675  30.5534622  25.4333404  22.2929307
  30.6376302  23.5896128  21.9184523  31.3645683  22.4862339  22.0439631
  32.1183830  22.5134720  22.4560814  31.0794085  21.7429518  21.7181325
  29.4737967  23.5352904  21.2813985  28.9985596  24.2469038  21.1928648
  29.1955944  22.7904458  20.9551793  31.1833694  22.4768899  27.3861690
  29.9849496  22.2690908  27.6065244  32.1192311  21.5629583  27.6521350
  32.9596323  21.6571409  27.4976501  31.7472545  20.2879974  28.2520525
  31.0349381  19.8888333  27.7289479  32.9410569  19.3320938  28.2277809
  33.1376240  19.1077308  27.3044296  33.7034156  19.7808673  28.6239026
  32.7282782  18.0264035  28.9863354  33.4986248  17.4533527  28.8502877
  32.6221979  18.2222953  29.9304118  31.4937114  17.2741352  28.5202385
  30.7046810  17.8106859  28.6975615  31.5691113  17.0895179  27.5708149
  31.3501928  16.0032076  29.2236242  31.9042239  15.8322168  29.8589483
  30.4224745  15.0925455  28.9490146  29.5420914  15.3037787  27.9778812
  29.5702044  16.0333763  27.5238735  28.9436584  14.7116240  27.8045153
  30.3767475  13.9660853  29.6489406  30.9467985  13.8275978  30.2782729
  29.7773728  13.3748845  29.4728908  31.2372425  20.4737633  29.6759412
  30.2499170  19.8469413  30.0775585  31.8975165  21.3212188  30.4601059
  32.5858233  21.7807113  30.2283874  31.4544627  21.5199199  31.8367792
  31.3716286  20.6546989  32.2681178  32.4939480  22.3332504  32.6098851
  32.6644818  23.1538074  32.1218377  32.1279734  22.5461493  33.4824163
  33.8429158  21.6466198  32.8347836  34.1771584  21.3173220  31.9856694
  34.8578513  22.6411753  33.3917812  35.7042176  22.1863729  33.5263169
  34.9686814  23.3673245  32.7573657  34.5293395  22.9869281  34.2361633
  33.6924850  20.4724470  33.7664995  34.5595698  20.0564864  33.8919215
  33.3512445  20.7879119  34.6179964  33.0739722  19.8366504  33.3756406
  30.0939684  22.2023175  31.8908883  29.2749369  21.8915853  32.7634816
  29.8491276  23.1614392  30.9923743  30.4211313  23.4611857  30.4246263
  28.5346037  23.7881559  30.9174123  28.3203409  24.1824538  31.7773365
  28.5408682  24.9054003  29.8722274  27.6596374  25.3089544  29.8367830
  29.1993998  25.5706902  30.1250188  28.7665837  24.5280667  29.0076073
  27.4593184  22.7604473  30.5866596  26.3745559  22.7667343  31.1834072
  27.7497889  21.8572333  29.6480284  28.4904348  21.8218214  29.2116071
  26.7822724  20.8264304  29.2880474  25.9616000  21.2531699  28.9955425
  27.3204081  19.9920371  28.1245192  27.5957839  20.5893294  27.4107839
  28.0790494  19.4736256  28.4341526  26.2991681  19.0278744  27.5563175
  25.9072873  18.5192747  28.2824702  25.6100652  19.5336431  27.0963227
  26.8971336  18.0487449  26.5688740  28.1325453  17.8535604  26.5853959
  26.1266897  17.4695370  25.7778694  26.4497195  19.9362548  30.4799962
  25.2768798  19.6333327  30.7302225  27.4756824  19.4979359  31.2213394
  28.2981134  19.7081806  31.0864674  27.2673621  18.5966301  32.3534434
  26.7791177  17.8164426  32.0499883  28.6238016  18.1224936  32.9102024
  29.1730328  18.8987827  33.1040563  28.4393402  17.3419003  34.2079936
  29.3089590  17.0581002  34.5318928  28.0127901  17.9150198  34.8635506
  27.8827048  16.5669342  34.0332296  29.3534597  17.2788681  31.8803713
  30.2023985  16.9923468  32.2515456  28.8090983  16.5065001  31.6627285
  29.5037160  17.8131315  31.0841830  26.4396265  19.2800773  33.4319236
  25.5646063  18.6638811  34.0542571  26.7147846  20.5555214  33.6802772
  27.3020020  21.0105369  33.2469579  26.0443545  21.3201865  34.7190129
  25.9603733  20.7699700  35.5127295  26.8957394  22.5406877  35.0753897
  27.8307680  22.2854853  35.0452017  26.7252234  23.2382723  34.4233551
  26.6191302  23.1195785  36.4520338  26.9824462  24.0180334  36.4955914
  25.6613281  23.1412710  36.5991041  27.2467398  22.3055543  37.5703561
  28.0472141  21.3893456  37.2794118  26.9403723  22.5869128  38.7484805
  24.6505243  21.7757686  34.3111118  23.8871278  22.2270337  35.1719663
  24.2945489  21.6600551  33.0349136  24.7812601  21.3073565  32.4209414
  23.0093560  22.1416306  32.5761474  22.7686344  21.6720520  31.7626770
  22.3388921  21.9431473  33.2487160  22.9611494  23.6241891  32.2932159
  21.8758806  24.2070692  32.2891515  24.1062810  24.2601624  32.0682522
  24.8784491  23.8829284  32.0935689  24.1580449  25.6799933  31.7558906
  23.3548066  26.1097431  32.0902637  25.3669833  26.3430046  32.4179706
  26.1723796  25.8812297  32.1377800  25.4051588  27.2725720  32.1455223
  25.3061022  26.3010293  33.9285912  24.2765940  25.9758580  34.5159407
  26.4125982  26.6439065  34.5687222  26.4317654  26.6383904  35.4281885
  27.1146801  26.8675667  34.1242729  24.2110312  25.8773754  30.2458967
  24.4036903  24.9358152  29.4781149  24.0264115  27.1236285  29.8217697
  23.9159502  27.8080357  30.3314471  23.9995508  27.4168748  28.3958503
  23.3834947  26.8099839  27.9559055  23.5164592  28.8479472  28.1559333
  24.0518503  29.4551773  28.6891360  23.6160651  29.0603666  27.2143147
  22.0536349  29.0569223  28.5311324  21.4926875  28.6979753  27.8261294
  21.8735780  28.5955837  29.3651877  21.6905648  30.5170894  28.7173637
  21.6215196  31.2522827  27.7133415  21.4736483  30.9295795  29.8786647
  25.3867501  27.2034990  27.7985916  26.4093724  27.4395627  28.4473284
  25.4169240  26.7332636  26.5522573  24.7266938  26.6601166  26.0452475
  26.6649461  26.2905197  25.9319988  27.3802156  26.3429627  26.5845708
  26.5653652  24.8341011  25.4504032  25.8830113  24.7795863  24.7624437
  27.8894429  24.3830923  24.8586445  27.8057518  23.4634495  24.5618873
  28.1094136  24.9556463  24.1067477  28.5778623  24.4505065  25.5390003
  26.1779391  23.9018309  26.5985801  26.9650317  23.7210694  27.1356095
  25.5008614  24.3366816  27.1408822  25.6165468  22.5729915  26.1287655
  25.3923220  22.0328970  26.9030071  24.8219434  22.7356680  25.5968861
  26.2861137  22.1200559  25.5916134  27.0269440  27.1979384  24.7604379
  26.3123072  27.2052397  23.7477114  28.1185998  27.9576330  24.8381660
  28.9179192  28.2741288  26.0316499  29.5374043  27.5524565  26.2239732
  28.3379770  28.4565754  26.7881011  29.6686618  29.5186846  25.6319246
  30.5320087  29.5562380  26.0722435  29.1470721  30.3127605  25.8255653
  29.8595436  29.3858867  24.1536638  30.6152060  28.8116055  23.9526557
  29.9647463  30.2558931  23.7381602  28.5611838  28.7292062  23.6690345
  27.9124787  29.4141720  23.4459731  28.7918633  27.8274497  22.4646292
  29.2734358  26.7001719  22.5932246  28.4586427  28.3584275  21.2832446
  28.2503459  29.1850899  21.1676432  28.4202815  27.5629911  20.0582698
  27.9295847  26.7433758  20.2271562  27.6784746  28.3499826  18.9726466
  28.0672794  29.2354548  18.8994362  27.7880016  27.6694651  17.6173924
  27.3111330  28.1854829  16.9479614  28.7197152  27.5994151  17.3572162
  27.4044514  26.7800331  17.6616424  26.2900620  28.4713583  19.3159357
  25.8832859  28.9034540  18.7206270  29.8197412  27.1879452  19.5766029
  30.0777434  26.0304196  19.2259245  30.7127729  28.1656873  19.5008425
  30.5688370  28.9632201  19.7874974  32.0351834  27.9974583  18.9233622
  32.0051823  27.3132354  18.2372442  32.5195366  29.3002595  18.2909264
  32.3586746  30.0264412  18.9139910  33.4704213  29.2248005  18.1152499
  31.8482351  29.6488200  17.0087092  32.4517785  29.4502712  15.7874100
  31.6431525  29.8578557  14.8277252  31.8210568  29.8266612  13.9154939
  30.5447117  30.3249168  15.3855091  29.8661646  30.6407806  14.9619929
  30.6422727  30.1999511  16.7495565  30.0043398  30.4541104  17.3759794
  33.0426919  27.5766439  19.9870313  32.8915018  27.8873133  21.1699325
  34.1076746  26.9146798  19.5315577  34.2403659  26.7516767  18.6975140
  35.1684715  26.3929536  20.3878958  34.9075393  26.4957546  21.3167076
  35.4085803  24.9061732  20.1220826  35.5337928  24.7728588  19.1685706
  36.2022541  24.6240596  20.6028942  34.3069371  24.1261867  20.5544589
  34.4528338  23.3127135  20.4030374  36.4683414  27.1631095  20.1704859
  36.8982980  27.3597450  19.0309549  37.0949310  27.5791956  21.2703258
  36.7579034  27.5219123  22.0593968  38.4259478  28.1815028  21.2535789
  38.5558939  28.6674891  20.4242573  38.5668688  29.1524193  22.4177487
  38.4466864  28.6571712  23.2429606  39.4605544  29.5281059  22.3941771
  37.5874525  30.3172252  22.4399251  36.6942733  29.9994386  22.2320225
  37.5842028  30.8947935  23.8319568  36.9628679  31.6390082  23.8632837
  37.3074389  30.2073739  24.4586282  38.4782648  31.2000058  24.0496117
  37.9857097  31.3543666  21.4191166  37.3512825  32.0867322  21.4489630
  38.8751974  31.6780937  21.6296808  37.9813722  30.9474072  20.5382493
  39.4833431  27.0863155  21.3517416  39.6295601  26.4509894  22.3992044
  40.2523751  26.8947522  20.2835102  40.1785106  27.3294952  19.5443792
  41.3137605  25.8988343  20.2881277  41.0638749  25.1729478  20.8816351
  41.5057144  25.3205529  18.8858887  41.7017628  26.0460194  18.2720008
  42.2458881  24.6946511  18.9033512  40.2803958  24.5824328  18.3612145
  40.0430122  23.7521910  19.0268861  39.4332357  25.2673330  18.3191741
  40.5709344  24.0450289  16.9616398  41.0636172  22.8884199  16.8795524
  40.2965299  24.7957718  15.9882575  42.6283458  26.4952766  20.7959537
  42.8238467  27.7120914  20.8137030  43.5205668  25.6111958  21.2413533
  43.3627971  24.7697910  21.3315007  44.8666651  26.0001025  21.6218807
  45.4575790  25.2413650  21.4928570  45.1635771  26.7098835  21.0318567
  45.0431127  26.4809592  23.0431657  46.0470549  27.1388827  23.3338420
  44.1171509  26.1580720  23.9441167  43.4491357  25.6420421  23.7808659
  44.1490427  26.6583850  25.3161060  44.9770900  27.1458098  25.4488040
  42.9938143  27.6385111  25.5321831  42.1780656  27.2268994  25.2067545
  42.9128555  27.8128685  26.4825189  43.1393842  28.9885586  24.8278819
  43.4025758  28.8421903  23.9062657  41.8127989  29.7314379  24.8316013
  41.9273638  30.5831133  24.3820782  41.1513636  29.1963702  24.3660406
  41.5354261  29.8763866  25.7494919  44.2235922  29.8243921  25.5083408
  44.3007004  30.6753788  25.0497331  43.9746381  29.9694674  26.4353068
  45.0655563  29.3454530  25.4629569  44.0953704  25.5437937  26.3587491
  43.7734857  25.8080091  27.5235570  44.4310946  24.3057215  25.9890566
  44.8044290  24.0933926  25.2434368  44.1664222  23.1881151  26.8893062
  43.3342202  23.3644354  27.3561465  43.9745110  21.8925596  26.0866823
  43.8540731  21.1556966  26.7053847  43.1886292  21.9848541  25.5256088
  45.0924070  21.6222216  25.2663428  45.2088385  22.2514779  24.7229514
  45.2482930  22.9824741  27.9508246  44.9709308  22.3462635  28.9733486
  46.4601873  23.4961892  27.7606987  46.6905077  23.9652511  27.0775571
  47.5226681  23.2905875  28.7373760  47.1994272  22.6982043  29.4338826
  48.7600057  22.6408943  28.1043179  49.3253259  22.2890123  28.8096201
  48.4714881  21.9201993  27.5220316  49.5046532  23.5712384  27.3431748
  49.0284273  23.8839223  26.7256946  47.9010565  24.6146588  29.3878252
  47.8932472  25.6635323  28.7387240  48.2210238  24.5565375  30.6797044
  48.2700884  23.8312493  31.1394605  48.5221559  25.7672391  31.4347086
  47.7436574  26.3455314  31.4320296  48.8498883  25.4162013  32.8854136
  49.0588550  26.2327954  33.3665019  48.0789732  24.9852857  33.2859403
  49.9585452  24.5396135  32.9657853  50.1235987  24.3579652  33.7692100
  49.6807032  26.5268063  30.8037121  50.7031704  25.9457622  30.4325318
  49.5144306  27.8429757  30.6945853  48.8402161  28.2691754  31.0167012
  50.4622089  28.6903516  30.0156197  50.4938002  29.5503772  30.4633517
  51.3432999  28.2886650  30.0745054  50.1586598  28.9373637  28.5541065
  50.8774924  29.7167475  27.9197607  49.1272020  28.2974995  27.9940944
  48.6171406  27.7390650  28.4053124  48.7806748  28.5104636  26.5948034
  49.5848011  28.4683470  26.0532427  47.8036431  27.4391751  26.0985786
  47.1387542  27.2771224  26.7862381  47.3728402  27.7558045  25.2903232
  48.4776404  26.1196589  25.7824414  49.7268066  26.0518240  25.8110834
  47.7463106  25.1433979  25.4998105  48.1394048  29.8796176  26.3991887
  47.3127594  30.3151688  27.2021324  48.4959933  30.5383616  25.2994933
  49.0956723  30.2629427  24.7478679  47.8958338  31.8080759  24.9222094
  47.0806775  31.9391295  25.4310661  48.8353621  32.9876528  25.2096374
  48.3967002  33.8114605  24.9439634  49.0333639  33.0086197  26.1588411
  49.6530367  32.8694636  24.7018613  47.5360420  31.7908221  23.4442561
  48.2390764  31.1922202  22.6226355  46.4290733  32.4504487  23.1110563
  45.8963447  32.8108068  23.6809294  46.0087357  32.6277772  21.7249993
  46.7788839  32.5223827  21.1460436  44.9406043  31.5916421  21.2937288
  44.7377676  31.7283151  20.3549318  45.4755768  30.1728220  21.4482569
  44.7897110  29.5453630  21.1715560  46.2633449  30.0701994  20.8905580
  45.7068973  30.0230627  22.3783692  43.6514659  31.7624328  22.0731977
  43.0115496  31.0974644  21.7741206  43.8362800  31.6432562  23.0178308
  43.3024765  32.6530850  21.9142038  45.4735557  34.0450605  21.5420530
  44.8259659  34.6067429  22.4343053  45.7311666  34.6169119  20.3757835
  46.2528440  34.2906539  19.7745885  45.1215133  35.8877121  20.0197290
  45.1361740  36.4792175  20.7885642  45.8874254  36.5587374  18.8832319
  46.8009034  36.7196907  19.1665020  45.8746287  35.9783199  18.1057606
  45.2744914  37.8846548  18.4912842  44.3782330  37.7323454  18.1547434
  45.2445200  38.4624435  19.2701602  46.0628302  38.5835903  17.4227876
  46.9535287  38.7791393  17.7535470  46.1093848  38.0203984  16.6350836
  45.4207289  39.8408142  17.0550364  44.7016658  40.0632671  17.4706286
  45.8164559  40.6070894  16.0461496  46.8511001  40.2437690  15.3005924
  47.2679398  39.5108723  15.4713560  47.1056350  40.7410917  14.6465708
  45.1721423  41.7345078  15.7824495  44.5007677  41.9700817  16.2657074
  45.4269775  42.2323251  15.1292436  43.6742767  35.6774448  19.6036772
  43.3332131  34.6709309  18.9725194  42.8232146  36.6536700  19.9467453
  43.0488911  37.3406032  20.4120267  41.4121411  36.6530452  19.5668081
  41.2976288  36.1360039  18.7540325  40.5381402  36.0396103  20.6517865
  40.9925257  35.2638203  21.0161980  40.4006918  36.6976448  21.3504670
  39.1905526  35.5962804  20.1674859  39.0571631  34.4221538  19.4560443
  39.8093187  33.9075119  19.2741110  37.8207377  34.0037448  19.0064266
  37.7419901  33.2104122  18.5270351  36.7004677  34.7660347  19.2755160
  35.8662013  34.4881164  18.9739236  36.8220724  35.9410857  19.9858324
  36.0687061  36.4556369  20.1670405  38.0619233  36.3490096  20.4282858
  38.1394759  37.1419764  20.9083392  41.0425013  38.1075241  19.2696912
  40.5054744  38.8207991  20.1114506  41.3406932  38.5454684  18.0482939
  41.6892529  38.0604634  17.4305567  41.0928765  39.9125235  17.6538826
  41.3478025  40.0361667  16.7260647  40.1483657  40.1128167  17.7453818
  41.8812937  40.8920113  18.5081958  43.1130647  40.8220581  18.5813116
  41.1941793  41.8170342  19.1824126  39.7294842  41.9535660  19.2981555
  39.3443321  41.1501715  19.6831766  39.3395623  42.1546160  18.4333568
  39.5550802  43.1271279  20.2422210  39.4534441  42.8197010  21.1563724
  38.7961181  43.6695451  19.9770019  40.8055750  43.9211165  20.1180478
  40.9675413  44.4439002  20.9184484  40.7835194  44.4861030  19.3299020
  41.8895453  42.8457283  19.9639095  42.6323140  43.2096661  19.4574217
  42.3840753  42.3919864  21.3296414  42.8870562  43.2212773  22.0932406
  42.2760059  41.1138284  21.6700118  41.9561526  40.5026937  21.1566647
  42.6975139  40.6290762  22.9698638  43.2287706  41.3132765  23.4051915
  41.5004307  40.2976649  23.8887743  41.8330944  40.1290177  24.7844366
  40.5333768  41.4727026  23.9676295  39.7946483  41.2347223  24.5495122
  41.0017112  42.2430199  24.3248635  40.2036349  41.6690040  23.0774177
  40.7839536  39.0270302  23.4113499  40.0387147  38.8437436  24.0041516
  40.4616011  39.1687843  22.5073545  41.4107306  38.2870596  23.4269418
  43.5741852  39.3967427  22.7898346  43.6591766  38.8073793  21.7095804
  44.2226956  39.0192019  23.8834498  44.2810025  39.5076995  24.5895521
  44.9081320  37.7449613  24.0224096  44.8781567  37.2638979  23.1812072
  46.3745234  37.9391982  24.4264149  46.7958387  38.5405450  23.7925747
  46.4052088  38.3244389  25.3156539  47.1848097  36.6430370  24.4493144
  46.9006660  36.1077313  25.2071608  47.0283698  36.1581172  23.6239179
  48.6826520  36.8804396  24.5789229  49.1561157  37.1536700  25.7040750
  49.3863790  36.7953832  23.5498521  44.1657282  36.9374588  25.0760676
  43.7775039  37.4804411  26.1195575  43.9157453  35.6654295  24.7783628
  44.0910255  35.3074748  24.0162012  43.3118454  34.7442833  25.7322221
  42.8981157  35.2454333  26.4512223  42.2446288  33.8716163  25.0666156
  42.6888419  33.2447236  24.4751714  41.7755877  33.3819860  25.7606363
  41.1939070  34.6098027  24.2408302  41.6347773  35.1605177  23.5765430
  40.3278488  33.5955505  23.5232442  39.6605081  34.0655527  22.9996793
  40.8874238  33.0581103  22.9417437  39.8941019  33.0300224  24.1816298
  40.3572488  35.5161385  25.1408444  39.6965647  35.9754710  24.5992282
  39.9157249  34.9722596  25.8122619  40.9418292  36.1614485  25.5678570
  44.4086626  33.8665946  26.3178736  45.3019461  33.4167684  25.5971344
  44.3267970  33.6173827  27.6247108  43.6594834  33.8480230  28.1155954
  45.3767011  32.9205529  28.3570566  45.9429374  32.4367757  27.7356573
  46.2411784  33.9273789  29.1250941  46.6231945  34.5539530  28.4916546
  45.6757278  34.4037321  29.7543843  47.3873350  33.3116530  29.9113624
  48.4421611  32.6969257  29.2642340  48.4294807  32.6205731  28.3379962
  49.5013758  32.1638136  29.9784740  50.1977656  31.7389115  29.5309246
  49.5305197  32.2722790  31.3585838  50.2406789  31.9133000  31.8395173
  48.5005990  32.9008809  32.0175534  48.5145716  32.9724489  32.9449906
  47.4356183  33.4308089  31.2926544  46.7413653  33.8551228  31.7422258
  44.7447969  31.9230166  29.3148293  43.8537002  32.2816556  30.0888330
  45.2069616  30.6730451  29.2650386  45.7617188  30.3786356  28.6777146
  44.7853362  29.6796720  30.2421634  43.9747644  29.9800961  30.6821825
  44.5110042  28.3300557  29.5811456  43.7568052  28.4188502  28.9786479
  45.2994153  28.0505449  29.0900135  44.1817501  27.2528040  30.5910568
  43.1680507  27.4381852  31.5238570  42.6804525  28.2298004  31.5176515
  42.8743742  26.4698578  32.4497102  42.1921413  26.6038541  33.0672255
  43.6018123  25.2944974  32.4592924  43.3221667  24.3141195  33.3811554
  42.6887587  24.5581340  33.8771919  44.6108611  25.0927319  31.5528536
  45.0957846  24.2996155  31.5609545  44.8933128  26.0654106  30.6272694
  45.5792907  25.9262612  30.0151781  45.8810266  29.5438890  31.2856573
  46.9319118  28.9566429  30.9850174  45.7053431  30.0663680  32.5036265
  44.5267140  30.7773384  33.0227310  43.7519120  30.1948543  33.0212530
  44.3664382  31.5855299  32.5107436  44.9278979  31.1243778  34.4509835
  44.6205127  30.4420199  35.0674704  44.5798696  31.9946664  34.7024691
  46.4109433  31.1624141  34.4482284  46.7651019  30.9827933  35.3328204
  46.7363442  32.0096302  34.1064562  46.7929714  30.0291259  33.4903341
  47.6392794  30.2391059  33.0660510  46.9204086  28.7201449  34.2494318
  47.8620470  28.5837194  35.0386158  46.0161690  27.7724017  34.0450629
  45.4497259  27.7891001  33.3987492  45.8824435  26.6032290  34.8903501
  45.8091709  25.8084146  34.3399528  46.6658352  26.5188533  35.4573476
  44.6489986  26.7005331  35.7735685  43.9653472  27.7220864  35.8411298
  44.3738784  25.6013355  36.4641947  44.8545056  24.8880032  36.4708627
  43.1778145  25.5379212  37.2913306  42.4075267  25.7794282  36.7517380
  42.9594908  24.1205659  37.8180183  42.1587064  24.1070732  38.3650954
  42.8586218  23.5165810  37.0664282  43.7282143  23.8598531  38.3502156
  43.2651427  26.5202375  38.4511583  44.3304466  26.7328551  39.0370894
  42.1315900  27.1377056  38.7688194  41.3813462  27.0226741  38.3644842
  42.0838136  28.0908306  39.8710400  42.7048584  27.8110140  40.5611646
  42.5071272  29.4760800  39.3839673  42.4698521  30.0971488  40.1282530
  43.4118987  29.4260881  39.0394004  41.9012609  29.7628703  38.6827981
  40.6823889  28.0988345  40.4681076  40.3014428  27.1516091  41.1619506
  39.9085726  29.1507762  40.1887441  40.1771637  29.8506273  39.7672085
  38.5075525  29.2017767  40.5867084  38.4454365  29.1280531  41.5518003
  37.9274151  30.5558809  40.1668164  38.2670268  31.2393161  40.7663682
  38.2079626  30.7475745  39.2594115  36.4355134  30.6187603  40.2048218
  35.7279915  30.8748613  41.3608508  36.0756066  31.0121979  42.1353463
  34.4342591  30.8732489  41.0940157  33.7511812  31.0208819  41.7084773
  34.2765310  30.6300792  39.8061604  35.5129106  30.4663988  39.2269512
  35.6830809  30.2853048  38.3312224  37.7148793  28.0609306  39.9679083
  36.7835690  27.5332407  40.5904060  38.0709565  27.6837431  38.7449869
  38.6293845  28.1204001  38.2586097  37.5581205  26.4880392  38.0919560
  37.2882998  25.8430029  38.7651617  36.3426293  26.8075330  37.2116862
  35.9849656  25.9798849  36.8533661  35.6707381  27.2551368  37.7492492
  36.7158380  27.6504392  36.1425531  37.2993819  27.2737811  35.6705223
  38.7015800  25.8865177  37.2827945  39.7575483  26.5036324  37.1070066
  38.5081035  24.6608370  36.7939462  37.7978522  24.1845650  36.8906577
  39.5811882  24.0463654  36.0197802  40.4192888  24.1869908  36.4865906
  39.3674639  22.5371705  35.8966800  40.1213554  22.1451850  35.4276119
  39.2856841  21.9028663  37.2763859  39.1509465  20.9465645  37.1935384
  40.1079337  22.0649623  37.7642142  38.5445263  22.2853653  37.7722655
  38.1667361  22.2699126  35.1644724  37.5075170  22.6067840  35.5609831
  39.7119619  24.6721141  34.6407070  40.7776950  24.5646535  34.0277175
  38.6716002  25.3554432  34.1643859  37.9662824  25.5323016  34.6234086
  38.6229940  25.8762376  32.8083448  39.3289225  25.4592533  32.2887237
  37.2805918  25.5124257  32.1537561  37.2522620  25.8864686  31.2593315
  37.2006341  24.5463694  32.1130514  36.0814526  26.0508855  32.9272528
  36.1294099  26.0458095  34.1743348  35.0807402  26.4728660  32.2919638
  38.8081414  27.3840968  32.7159488  38.7038845  27.9309680  31.6122626
  39.0653646  28.0835603  33.8192081  39.2857939  27.7558055  34.5829415
  38.9745742  29.5354828  33.7642615  38.1128156  29.7720333  33.3876490
  39.0496186  30.1633804  35.1668288  39.2285630  31.1127038  35.0733297
  38.1961527  30.0343758  35.6108542  40.1436890  29.5683156  36.0774560
  39.9818494  29.5460453  37.3018754  41.2459517  29.1396130  35.5084912
  41.3309693  29.1759957  34.6532454  41.8763929  28.8064018  35.9896691
  40.0462810  30.1338307  32.8571671  41.2185746  29.7504047  32.9019594
  39.6286494  31.0912117  32.0294718  38.8031824  31.3194453  31.9449343
  40.5262926  31.8544393  31.1772275  41.4040841  31.4409204  31.1782936
  40.0176738  31.9187140  29.7279389  39.1812358  32.4090712  29.7337110
  40.6689193  32.4201180  29.2122575  39.7566732  30.6216446  28.9553545
  39.0915551  30.1002028  29.4318945  39.2008807  30.9328947  27.5649448
  39.0426195  30.0996421  27.0936768  38.3685100  31.4222146  27.6605801
  39.8466898  31.4696173  27.0801187  41.0112364  29.7790843  28.8375231
  40.8032420  28.9702068  28.3428146  41.6904703  30.2887128  28.3678528
  41.3239696  29.5520587  29.7268815  40.6587675  33.2740664  31.7008987
  39.7749202  33.7968520  32.3898596  41.7813137  33.9033212  31.3559068
  42.4572183  33.5182886  30.9885869  41.9652075  35.3283843  31.5765672
  41.1556591  35.6914199  31.9684328  43.1393989  35.6539589  32.5333098
  43.1341386  36.6074324  32.7123423  42.9699139  34.9361983  33.8671811
  43.7168282  35.1589106  34.4428573  42.1387844  35.2243044  34.2768744
  42.9470603  33.9789846  33.7093528  44.4762946  35.3156411  31.9212175
  45.1772645  35.5360885  32.5531963  44.4990636  34.3674731  31.7178068
  44.5905052  35.8320058  31.1074697  42.1640147  35.9913639  30.2185249
  42.5180737  35.3458012  29.2228472  41.8785562  37.2890050  30.1755603
  41.6954447  37.7633161  30.8700473  41.8478990  38.0460228  28.9295979
  42.2377567  37.5140608  28.2184556  40.4112170  38.4274062  28.5211664
  40.0480861  39.0230427  29.1948889  40.4135083  39.1789102  27.2002040
  39.4993736  39.4066859  26.9659072  40.9415562  39.9860498  27.2973238
  40.7987249  38.6108432  26.5151171  39.5145512  37.1935473  28.4654392
  38.6197266  37.4652621  28.2071952  39.8737572  36.5717026  27.8139591
  39.4948319  36.7793271  29.3430689  42.6920221  39.2935781  29.1140755
  42.5726617  39.9829303  30.1316401  43.5547412  39.5759181  28.1445221
  43.6563544  39.0992991  27.4360815  44.4232178  40.7418002  28.1979029
  44.2176134  41.2594810  28.9920800  45.8953622  40.3385781  28.2533989
  46.0214101  39.7054761  28.9771176  46.1416668  39.9287335  27.4094940
  46.8210455  41.5102879  28.4918430  46.7550172  42.2433752  29.6631018
  46.1329084  42.0078392  30.3133575  47.5844341  43.3158149  29.8843928
  47.5268375  43.7984997  30.6771646  48.4985679  43.6697260  28.9248448
  49.3282538  44.7432104  29.1441772  49.1667477  45.0826823  29.8953088
  48.5874832  42.9565091  27.7514997  49.2070798  43.1986265  27.1018566
  47.7455282  41.8826472  27.5430451  47.8042634  41.4030409  26.7479873
  44.1731754  41.6171965  26.9793389  44.0818165  41.1154348  25.8557314
  44.0584065  42.9216437  27.2090202  44.0759956  43.2790264  27.9912339
  43.8885802  43.8838659  26.1228330  43.7075134  43.4106743  25.2957154
  42.7396886  44.8681073  26.3843514  43.0198489  45.5009722  27.0646633
  42.4339506  45.6542712  25.1141197  41.7075622  46.2723748  25.2924866
  43.2273195  46.1453846  24.8478316  42.1775306  45.0349731  24.4131598
  41.4988033  44.1462513  26.9026433  40.7958139  44.7976980  27.0570784
  41.2108823  43.4990943  26.2412128  41.7196279  43.6954005  27.7335200
  45.2025653  44.6358798  25.9737578  45.4415198  45.5958819  26.7136373
  46.0760838  44.2582429  25.0411884  45.9262963  43.2268025  24.0028130
  45.1057944  43.3659424  23.5033264  45.9571686  42.3414207  24.3971465
  47.1208763  43.4501880  23.1209046  46.8981677  44.0559003  22.3978953
  47.4429441  42.6057866  22.7688710  48.1717138  44.0636939  23.9717683
  48.7361450  44.6535158  23.4479281  48.7030406  43.3785681  24.4073558
  47.4128848  44.8777923  25.0277950  47.8431650  44.7537472  25.8886625
  47.3950625  46.3600230  24.6983159  48.2411161  47.1050351  25.2113473
  46.4555240  46.8174076  23.8682184  45.8408804  46.3341478  23.5097252
  46.4093077  48.2266245  23.5015132  47.2618547  48.4815365  23.1163477
  45.3267988  48.4566596  22.4462810  45.3724093  49.3757415  22.1406699
  45.4745028  47.8514979  21.7031788  44.0420361  48.2139380  22.9930323
  43.9893117  47.4205014  23.2630812  46.1457391  49.1253982  24.6977692
  46.5011524  50.3088083  24.6609459  45.5371052  48.5918609  25.7530529
  45.3377143  47.7582389  25.8207035  45.1465330  49.3789060  26.9105686
  45.4424282  50.2932759  26.7792572  43.6168944  49.3942240  27.0354523
  43.3687649  49.9217039  27.8111472  43.2389137  49.7865477  26.2329576
  43.2993090  48.4839032  27.1404171  45.7540837  48.8773313  28.2121884
  45.4977240  49.4757388  29.2630133  46.5351585  47.7973530  28.1809617
  46.7253232  47.3612160  27.4644068  47.1514968  47.2449578  29.3887781
  47.6223738  46.4308697  29.1499299  48.1806210  48.2154917  29.9747351
  47.7425029  49.0567043  30.1789406  48.5549009  47.8309960  30.7824285
  49.2265659  48.4492090  29.0432098  49.7876902  48.9822678  29.3703701
  46.0944459  46.8748974  30.4303680  46.3065654  47.0116265  31.6352234
  44.9475519  46.3906879  29.9594801  44.7758587  46.3078369  29.1202637
  43.8548871  45.9451763  30.8134912  43.9718320  46.3115175  31.7044946
  42.4978661  46.4231610  30.2668739  42.4325336  46.1651977  29.3340569
  41.3415245  45.7543595  31.0124466  40.5026432  46.0747801  30.6464385
  41.4071468  44.7935081  30.8990344  41.3995811  45.9814995  31.9543733
  42.3941938  47.9521128  30.3354851  41.5317632  48.2257202  29.9856931
  42.4820095  48.2329898  31.2596147  43.1065094  48.3400280  29.8023760
  43.8997206  44.4256517  30.9067384  43.9033710  43.7271228  29.8821755
  43.9289973  43.9136249  32.1284832  43.9559363  44.3886169  32.8445181
  43.9173999  42.4804293  32.3851129  43.9890443  42.0003602  31.5451202
  45.0882630  42.0723862  33.2778869  45.9115131  42.2890751  32.8126609
  45.0383752  42.5944135  34.0942329  45.1804097  40.6052731  33.6909863
  44.3564335  40.3455166  34.1310995  45.3669345  39.7251559  32.4762323
  45.4231963  38.7997754  32.7628603  44.6087311  39.8426170  31.8823481
  46.1857391  39.9811049  32.0231671  46.3245321  40.4052244  34.6685616
  46.3662049  39.4677425  34.9176301  47.1539398  40.6717206  34.2419790
  46.1666789  40.9504753  35.4554096  42.5863893  42.1257286  33.0327394
  42.2712814  42.6095131  34.1256623  41.8035455  41.3028506  32.3536013
  41.9891289  41.0055562  31.5680265  40.5387721  40.8138471  32.8743602
  40.2238759  41.4055813  33.5755998  39.4953818  40.7751199  31.7653919
  39.3475132  41.6778390  31.4428658  39.8255559  40.2173753  31.0440452
  38.1727055  40.2240135  32.2016789  37.2597478  41.0158357  32.8779924
  37.4746088  41.9007233  33.0690492  36.0442860  40.5133203  33.2808878
  35.4380709  41.0538095  33.7330345  35.7289707  39.2027907  32.9950320
  34.5192865  38.6894594  33.3827408  34.4589780  37.8856636  33.1468991
  36.6165199  38.3995670  32.3239545  36.3980490  37.5157446  32.1360334
  37.8283281  38.9090853  31.9304191  38.4285711  38.3632670  31.4751206
  40.7971586  39.4389033  33.4768750  41.0138520  38.4677969  32.7512640
  40.8241973  39.3702912  34.8081981  40.6510254  40.0255246  35.3365907
  41.1642453  38.1293540  35.4796161  41.8482695  37.6712745  34.9672334
  41.5302804  38.3353800  36.3540339  40.0088271  37.1753847  35.6719189
  40.2276510  36.0034367  35.9979296  38.7879028  37.6507507  35.5010033
  38.5883611  38.4541966  35.2675149  37.6682890  36.7700849  35.7153665
  36.8417187  37.2229577  35.4901094  37.7577740  35.9788997  35.1616840
  37.6214037  36.3509370  37.1712243  38.1933511  36.9837325  38.0580072
  36.9404473  35.2412234  37.4058544  36.6235519  34.7192415  36.8005725
  36.6739735  34.8175218  38.7724588  36.4513618  35.6024033  39.2968405
  35.4429336  33.9085433  38.7654725  35.2312336  33.6346031  39.6716495
  35.6061886  33.1375981  38.2005500  34.0399553  34.8411370  38.0925239
  37.8780606  34.1564981  39.4373468  37.8310509  33.8804770  40.6397076
  38.9715485  33.9498211  38.7063244  39.0083161  34.0432725  37.8514063
  40.2293915  33.5373650  39.3110341  40.0618893  32.7890995  39.9049388
  41.2149268  33.0759992  38.2322705  42.0447500  32.8059626  38.6581152
  40.8300153  32.3255224  37.7525866  41.3800885  33.8105954  37.6205425
  40.8788017  34.6462349  40.1233678  41.8203242  34.3594525  40.8639946
  40.4214786  35.8926098  39.9835097  39.7617249  36.1015992  39.4744268
  40.9957994  37.0400105  40.6861030  41.7053426  36.7354927  41.2715621
  41.5859164  38.0764135  39.7091153  40.8757975  38.3777796  39.1208750
  42.1339226  39.2972661  40.4712682  42.4973933  39.9303596  39.8321221
  41.4110407  39.7078673  40.9703507  42.8302241  39.0024872  41.0789941
  42.6879293  37.4589241  38.8525597  42.2966008  36.7684272  38.2947272
  43.0709830  38.1530104  38.2930527  43.8220011  36.8257949  39.6391184
  44.4725617  36.4627960  39.0176446  44.2385194  37.5044902  40.1936048
  43.4641780  36.1174695  40.1955163  39.9120403  37.6842647  41.5405500
  38.8274090  38.0105451  41.0407899  40.2284589  37.9165515  42.8158002
  40.9996702  37.7417387  43.1552153  39.2952429  38.4957958  43.7731622
  38.3842575  38.3412569  43.4752756  39.4681237  37.8745516  45.1590636
  40.4149771  37.7269457  45.3094003  39.1330128  38.5020243  45.8178753
  38.7693069  36.5626940  45.3977885  38.4807481  35.6829556  44.3528563
  38.7343582  35.9014956  43.4856838  37.8480644  34.4818444  44.5969325
  37.6631654  33.8974125  43.8963094  37.4799043  34.1572433  45.8906192
  36.8450608  32.9668873  46.1865958  36.7355043  32.5177920  45.4852822
  37.7496363  35.0213983  46.9261861  37.5042508  34.7986738  47.7953195
  38.3819008  36.2079947  46.6763528  38.5648793  36.7840515  47.3839879
  39.5125938  39.9944299  43.9135920  40.6537592  40.4720350  43.8915686
  38.4122088  40.7244736  44.1176678  37.6085687  40.4327325  44.0314262
  38.5045043  42.1232270  44.5179822  39.1565370  42.5700362  43.9554203
  37.1591110  42.8421801  44.3506379  37.3039225  43.7964397  44.4445010
  36.8141387  42.6517197  43.4639288  36.0810148  42.4355540  45.3657505
  35.7168671  41.5735549  45.1066673  36.4866650  42.3710160  46.2437429
  34.9329017  43.4154118  45.4555331  35.1267711  44.6292108  45.1937073
  33.8223040  42.9675387  45.8075195  38.9720077  42.2378776  45.9707743
  38.7937828  41.3327309  46.7925019  39.5417959  43.3985488  46.2918005
  39.5951530  44.0791820  45.7686826  40.1377010  43.5999254  47.6103852
  40.8362156  42.9410329  47.7428918  40.7757943  44.9811853  47.6780817
  40.0883053  45.6415228  47.4952725  41.1163442  45.1144650  48.5765717
  41.9214021  45.2478463  46.7180776  41.6073518  45.1477051  45.8056730
  42.3989035  46.6830142  46.9078608  43.1317972  46.8551860  46.2956928
  41.6631409  47.2869715  46.7230694  42.6985819  46.7971490  47.8232029
  43.0500882  44.2513307  46.9496253  43.7693790  44.4395678  46.3278202
  43.3676017  44.3420492  47.8615640  42.7121645  43.3536560  46.8042854
  39.1336365  43.4544829  48.7463796  39.4940384  42.9861398  49.8331805
  37.8804360  43.8517431  48.5329467  37.5730133  44.1387760  47.7830297
  36.9097796  43.8192549  49.6224735  37.3170850  44.2117096  50.4115562
  35.6901917  44.6640525  49.2638253  35.1523787  44.7964688  50.0596225
  35.9897958  45.5204684  48.9198439  34.9049656  44.0249767  48.2816079
  34.2384857  44.4988151  48.0925793  36.4665899  42.4069050  49.9861666
  35.7591453  42.2372832  50.9871274  36.8496310  41.3984669  49.2108988
  37.2638841  41.4942927  48.4632005  36.5932967  40.0097074  49.5699456
  35.8204664  39.9642103  50.1543362  36.3125195  39.1680847  48.3335098
  37.0501282  39.2663748  47.7116847  36.2263448  38.2382938  48.5992478
  35.0522854  39.5603002  47.6181176  34.2901272  39.4108592  48.1990783
  35.1043859  40.4934676  47.3592021  34.8744505  38.7235578  46.3677869
  34.1324368  39.0775578  45.8537853  35.6898044  38.7621476  45.8442653
  34.5933149  37.3237145  46.6593130  34.3597738  37.1180147  47.4610381
  34.4920265  36.3843662  45.7201136  34.6758815  36.7063037  44.4517751
  34.8517569  37.5201611  44.2355668  34.6147549  36.1032321  43.8419373
  34.2103961  35.1271657  46.0442556  34.0960385  34.9101116  46.8690543
  34.1576503  34.5263796  45.4311716  37.8003859  39.4715248  50.3247616
  38.8681797  39.2664649  49.7370925  37.6273491  39.2225040  51.6196920
  36.8878652  39.3479977  52.0415213  38.6993948  38.7034846  52.4555329
  39.5298064  38.7557529  51.9561807  38.8633177  39.5662977  53.7147952
  39.5874567  39.2110979  54.2532724  39.2122009  41.0009265  53.3306341
  39.3150465  41.5421332  54.1281479  40.0437860  41.0165570  52.8297711
  38.5075385  41.3775944  52.7817750  37.6506704  39.5481147  54.4826005
  37.0160604  39.8519105  54.0244736  38.4886365  37.2469344  52.8352256
  39.2858849  36.6963267  53.6001466  37.4342462  36.6138626  52.3236796
  36.8232512  37.0041502  51.8608085  37.2052940  35.1882079  52.4927081
  38.0306831  34.7554193  52.7601698  36.1395082  34.9031377  53.5534125
  35.2995219  35.2986586  53.2722378  36.0370533  33.9425642  53.6488614
  36.5112726  35.4539268  54.8039614  37.2382095  35.1188381  55.0594692
  36.7701232  34.6158429  51.1535301  36.2397057  35.3340326  50.3027511
  37.0069419  33.3211877  50.9698269  37.3739378  32.8031263  51.5485397
  36.6601148  32.6773322  49.7113552  36.9287639  33.2497236  48.9747354
  37.3966871  31.3450380  49.5736475  37.1514712  30.9339859  48.7300201
  38.3526259  31.5088821  49.5967586  37.1419938  30.7670839  50.3097273
  35.1593736  32.4486711  49.6130705  34.4583294  32.3148388  50.6181720
  34.6742686  32.3786038  48.3812683  35.1363432  32.5197370  47.6694077
  33.2830382  32.0479619  48.1267103  32.9503776  31.4593974  48.8219180
  32.7477880  32.8568561  48.1165403  33.1486704  31.3551810  46.7926916
  33.9421484  31.5811501  45.8754639  32.1320992  30.5058885  46.6876961
  31.5790108  30.3420786  47.3254403  31.8451491  29.7561827  45.4652310
  31.2066265  29.0552081  45.6730135  31.2098825  30.6673803  44.4109610
  30.6580684  31.3295484  44.8563413  31.9137863  31.1064514  43.9075557
  30.3330898  29.9083191  43.4297782  30.8036938  29.4264030  42.4010694
  29.0483975  29.8070361  43.7436023  28.7547283  30.1584210  44.4711970
  28.5104048  29.3873738  43.2202273  33.1113188  29.0861360  44.9258556
  33.5553250  29.3376705  43.8042609  33.6853156  28.2103187  45.7470479
  33.3825203  28.0048511  46.5250916  34.9084678  27.5103374  45.3838951
  35.1918776  27.8244556  44.5115473  36.0448104  27.8265503  46.3774185
  36.8224919  27.2936594  46.1468808  36.4381655  29.2902817  46.2890552
  37.1525569  29.4639106  46.9224121  36.7410938  29.4813730  45.3884867
  35.6664553  29.8377224  46.5036666  35.6389994  27.4718501  47.8025376
  36.3736484  27.6814643  48.4017084  34.8556405  27.9890734  48.0458931
  35.4370093  26.5238482  47.8460951  34.6778411  26.0076593  45.2716504
  35.6189963  25.2340405  45.3512665  33.4241944  25.5880660  45.0743143
  32.7386884  26.1009638  44.9948957  33.1315501  24.1625518  44.9773516
  33.4669005  23.7157325  45.7709646  31.6201078  23.9399983  44.9099567
  31.4432282  22.9885069  44.8458422  31.2120424  24.2988763  45.7131448
  31.2687404  24.3950932  44.1282588  33.8010675  23.5363882  43.7642326
  34.0925109  22.3335750  43.7646550  34.0411866  24.3234454  42.7215775
  33.8624004  25.1650345  42.7037631  34.6376664  23.8258288  41.4929618
  34.5812952  22.8570404  41.4918198  33.8332687  24.3383222  40.2952218
  33.7832323  25.3059326  40.3362642  34.2715621  24.0612039  39.4754625
  32.4077195  23.7869779  40.2827727  32.2478178  22.5768405  40.5384518
  31.4527464  24.5540037  40.0491709  36.1109860  24.2037356  41.3673876
  36.7101940  23.9849772  40.3144296  36.7194281  24.7165718  42.4275023
  36.3679364  24.7692106  43.2104178  38.0742659  25.2482332  42.3467340
  38.2127268  25.6266343  41.4642623  38.2563589  26.3670580  43.3753973
  39.1607517  26.7118038  43.3102441  37.6190485  27.0745928  43.1884025
  38.1016554  26.0077833  44.2632873  39.1322041  24.1619236  42.5656025
  38.8481217  23.0574372  43.0346803  40.3745586  24.4980363  42.2144749
  40.5655557  25.2198420  41.7873571  41.5542629  23.6835304  42.5118147
  41.2838351  22.8720424  42.9710707  42.2919980  23.2943986  41.2144387
  41.6652437  22.8603793  40.6135251  42.6464720  24.0969550  40.8007620
  43.4487425  22.3393941  41.4546210  44.0559122  22.3793524  42.5457014
  43.7616617  21.5517017  40.5357591  42.4296389  24.5087967  43.4484679
  43.3018992  25.2606588  43.0109483  42.1823924  24.3800739  44.7529531
  41.6216577  23.8262433  45.0978912  42.8892460  25.2157519  45.7159268
  42.7108614  26.1481164  45.5178552  42.3818892  24.9249023  47.1274613
  42.4858360  23.9765169  47.3001291  42.9227255  25.4287694  47.7568951
  40.9269923  25.2804129  47.3924900  40.3667652  24.8145351  46.7520647
  40.5428734  24.8123807  48.7790305  39.6138789  25.0413214  48.9430801
  40.6611187  23.8513137  48.8315121  41.1114290  25.2527030  49.4294334
  40.6877517  26.7762492  47.2282588  39.7525295  26.9663748  47.4034260
  41.2473807  27.2554709  47.8583603  40.9141804  27.0339776  46.3215841
  44.3932740  24.9993351  45.6451762  45.1723909  25.9496614  45.7837072
  44.8236804  23.7461711  45.4667884  44.3168683  23.0642911  45.3337091
  46.2513490  23.4484221  45.4881915  46.6252272  23.7673640  46.3243537
  46.4708624  21.9372797  45.4225215  47.4243900  21.7557202  45.4377264
  46.0431400  21.5222092  46.1885326  46.0823818  21.5966828  44.6024164
  46.9937292  24.1401919  44.3539115  48.1737732  24.4791237  44.5022030
  46.3318046  24.3533818  43.2177658  45.4974693  24.1766892  43.1049413
  46.9805644  24.9179870  42.0405858  47.9396000  24.8067959  42.1287972
  46.5311807  24.1635921  40.7851462  45.5616412  24.1365374  40.7662439
  46.8623252  24.6320634  40.0027014  47.0337030  22.7364568  40.7163498
  46.7576565  22.2641710  41.5176004  46.6605102  22.3060217  39.9316054
  48.5507769  22.6540465  40.6208387  49.1640508  23.5628933  40.0155219
  49.1269379  21.6857897  41.1576575  46.7002688  26.4001997  41.8445602
  47.4303668  27.0555073  41.0924851  45.6735588  26.9381139  42.4984874
  45.1909975  26.5166097  43.0727999  45.2685473  28.3300924  42.2903061
  44.9406080  28.4229704  41.3824496  44.0951929  28.6059182  43.2356386
  43.4976468  27.8423663  43.2063430  44.4468803  28.7024430  44.1339236
  43.2689676  29.8227910  42.9528059  43.6381343  30.9588894  42.2922227
  44.4803723  31.1158624  41.9310085  42.5836220  31.8466168  42.2538184
  42.5959990  32.6267098  41.8914654  41.5113975  31.2769397  42.8948175
  40.2334049  31.7721021  43.1228158  39.9789972  32.6121191  42.8150154
  39.3540282  30.9635720  43.7971752  38.4901407  31.2683095  43.9574948
  39.7256554  29.6916592  44.2501435  39.1074406  29.1706454  44.7103773
  40.9957928  29.2016882  44.0304727  41.2393983  28.3592040  44.3400689
  41.9158852  30.0050599  43.3466994  46.4112533  29.3241381  42.4658324
  46.5733935  30.1898773  41.5917757  47.2187000  29.2787563  43.5434911
  47.1163221  28.4551723  44.7647831  47.5441633  27.5948077  44.6311509
  46.1888528  28.3554852  45.0294626  47.8707580  29.2667303  45.7837136
  48.2482545  28.6937052  46.4703602  47.3004339  29.9463089  46.1750822
  48.9657101  29.9108520  45.0058261  49.7105709  29.3007212  44.8893882
  49.2556251  30.7307684  45.4354717  48.3420416  30.2350121  43.6374885
  48.0043991  31.1450135  43.6501770  49.3528516  30.0939122  42.5109234
  49.9035902  31.1021800  42.0485848  49.6235300  28.8658249  42.0610413
  49.2993877  28.1392066  42.3856204  50.5331621  28.6774709  40.9341814
  51.3679099  29.1327391  41.1231470  50.8371900  27.1900727  40.7396140
  50.0089136  26.7083862  40.5900336  51.7396146  26.9783444  39.5339462
  51.9255984  26.0338335  39.4202490  51.3055645  27.3132665  38.7329594
  52.5771752  27.4516877  39.6594187  51.4895184  26.6646176  41.9019008
  50.9938686  26.7562188  42.5745014  49.9499533  29.2729387  39.6573926
  50.6763460  29.8694578  38.8540516  48.6454508  29.1020899  39.4407478
  48.1147852  28.6580625  39.9520233  48.0108092  29.6849369  38.2665717
  48.4881619  29.3931092  37.4744531  46.5732020  29.1795755  38.1595648
  46.0874758  29.4172307  38.9655476  46.1501765  29.5717260  37.3798941
  46.5968521  27.7748915  38.0242230  45.8137072  27.4787354  37.9649897
  48.0659865  31.2059759  38.3109094  48.3063113  31.8560127  37.2850580
  47.9014131  31.7922491  39.4995894  47.7112845  31.3806684  40.2311620
  48.0435422  33.2373994  39.6302653  47.4455854  33.6698474  38.9997025
  47.6393696  33.6855854  41.0473181  48.0482833  33.0866825  41.6902691
  48.1272673  35.1228269  41.3325561  47.8579668  35.3749531  42.2290736
  49.0939688  35.1472346  41.2572463  47.7294092  35.7255166  40.6844636
  46.1178609  33.6034828  41.2025355  45.7113802  34.2794087  40.6382708
  45.8243861  32.7227620  40.9201962  45.6198799  33.8236978  42.6158169
  44.6521284  33.7549986  42.6239616  46.0047753  33.1476752  43.1954460
  45.8917130  34.7070345  42.9118964  49.4646054  33.6620236  39.2896196
  49.6826010  34.7038702  38.6560341  50.4549808  32.8689132  39.7086918
  50.3498439  32.1535889  40.1750526  51.8446964  33.1870909  39.3840604
  52.0569575  34.0685571  39.7301867  52.7998981  32.1801898  40.0278778
  52.5073389  31.2857365  39.7939903  53.6902324  32.3322360  39.6752351
  52.8916090  32.2484271  41.5319515  53.2736636  33.1018552  41.7884115
  52.0023825  32.1529010  41.9087656  53.7687401  31.1458958  42.1043418
  54.2686178  30.3120990  41.3162427  53.9602875  31.1129755  43.3399518
  52.0600831  33.2068761  37.8802675  52.7929472  34.0558304  37.3640913
  51.4409479  32.2697824  37.1586055  50.9505802  31.6416236  37.4822412
  51.5661234  32.2608678  35.7042116  52.5059937  32.2033461  35.4702176
  50.8615701  31.0386569  35.1194654  49.9765295  30.9716631  35.5105409
  50.7892338  31.1499697  34.1590233  51.5826879  29.7259844  35.3801660
  52.5358685  29.8564685  35.2589978  51.3972010  29.4344135  36.2861549
  51.1281960  28.6324826  34.4266525  50.1585623  28.6070781  34.3994274
  51.4889066  28.8015400  33.5426885  51.6130245  27.3371615  34.8852325
  52.3784466  27.0717236  34.5975666  50.9531420  26.5371193  35.7188347
  49.7542745  26.8805441  36.1825891  49.4009041  27.6293487  35.9493788
  49.3351725  26.3555033  36.7190718  51.4985653  25.3862253  36.0871369
  52.2713788  25.1605184  35.7849172  51.0740197  24.8598324  36.6190876
  51.0084788  33.5428728  35.0917014  51.5793100  34.0777278  34.1365937
  49.8968693  34.0494595  35.6279142  49.4494949  33.6856034  36.2658867
  49.3435627  35.3130306  35.1414650  49.1597801  35.2324338  34.1925319
  48.0154120  35.6282584  35.8562967  48.1814857  35.6501260  36.8118078
  47.4904559  36.9972267  35.4279138  46.6555007  37.1734210  35.8897139
  48.1459395  37.6727292  35.6596953  47.3439781  36.9930142  34.4691935
  46.9825128  34.5391186  35.5741610  46.7494415  34.5659736  34.6333950
  47.3698302  33.6770265  35.7924532  45.7050318  34.6876315  36.3714289
  45.1027721  33.9640560  36.1381635  45.9177908  34.6510577  37.3169859
  45.2961757  35.5401891  36.1558154  50.3589420  36.4327432  35.3318164
  50.6927675  37.1631498  34.3907725  50.8790931  36.5692627  36.5533295
  50.6749888  36.0790700  37.2298216  51.8691466  37.6036495  36.8366278
  51.4669316  38.4745421  36.6945039  52.3022875  37.5145171  38.3005856
  51.5556496  37.7812739  38.8600868  52.5434744  36.5953430  38.4969573
  53.5035192  38.4004443  38.6746116  53.7790030  38.1921001  39.5810725
  54.2311394  38.2197912  38.0588656  53.1946978  39.8855235  38.6099635
  52.1140388  40.3238132  38.9996342  54.1558991  40.6722074  38.1271568
  54.8998343  40.3301897  37.8656413  54.0291616  41.5208027  38.0712130
  53.0809294  37.4868988  35.9216827  53.6046006  38.5018760  35.4443998
  53.5583215  36.2620619  35.6806137  53.2189586  35.5315157  35.9800750
  54.7472179  36.0920583  34.8505293  55.4417326  36.6900731  35.1688744
  55.2732540  34.6611338  34.9580614  54.5570287  34.0496733  34.7245270
  56.0086753  34.5544473  34.3338246  55.7807384  34.2711079  36.3355600
  56.5442498  34.8251162  36.5607715  55.0707453  34.4026460  36.9831807
  56.2173074  32.8134339  36.4027546  56.1386451  32.0929093  35.4108078
  56.6785748  32.3816885  37.5785766  56.9814127  31.4228386  37.6769892
  56.7231682  33.0146847  38.3639512  54.4691080  36.4298670  33.3944767
  55.3725512  36.8805156  32.6806004  53.2358674  36.2219886  32.9325005
  52.5761772  35.9477303  33.4104128  52.9056421  36.4538924  31.5353388
  53.6846899  36.2617615  30.9909893  51.7825439  35.5009290  31.1082061
  51.8446953  34.6903829  31.6381392  50.9289942  35.9330013  31.2684259
  51.8304065  35.1070715  29.6655875  51.1921196  35.8238255  28.6751656
  50.7318227  36.5390568  28.7984094  51.4053120  35.2436024  27.5065998
  51.0809149  35.5378561  26.6862149  52.1534068  34.1742558  27.7042230
  52.4318003  34.0632640  29.0459252  52.9411205  33.3998010  29.4507323
  52.4812313  37.8920765  31.2572382  52.7248742  38.3886043  30.1540500
  51.8481088  38.5703436  32.2279553  51.7069187  38.2587028  33.0169999
  51.3290808  39.9309845  32.0292690  51.6295531  40.2587810  31.1680914
  49.8045803  39.9139260  32.0186301  49.4841296  39.5642426  32.8648800
  49.4767114  40.8168230  31.8848945  49.2578045  39.0471420  30.9150274
  49.4447319  39.3900869  29.5837743  49.9101314  40.1670375  29.3728310
  48.9594284  38.5867781  28.5612707  49.0870508  38.8282050  27.6726675
  48.2719469  37.4365387  28.8780536  47.7792705  36.6340027  27.8774142
  47.9678603  36.9621030  27.1271429  48.0749080  37.0767405  30.1938237
  47.6134597  36.2967816  30.4026839  48.5745204  37.8849891  31.2056101
  48.4415015  37.6413849  32.0938426  51.8424428  40.8908077  33.0997925
  51.0647918  41.5852376  33.7595880  53.1630436  40.9777810  33.2779957
  54.2324589  40.3263085  32.4994180  54.1045779  40.4854749  31.5512563
  54.2681703  39.3787180  32.7004107  55.4862763  41.0160091  32.9853317
  55.6996886  41.7728736  32.4171237  56.2283149  40.3919745  33.0132362
  55.1871253  41.4982537  34.3675780  55.7088208  42.2882874  34.5767247
  55.3438169  40.7970314  35.0183268  53.6960368  41.8534308  34.3359317
  53.2964429  41.6304453  35.1908985  53.4893648  43.3274089  34.0552552
  53.6502151  44.1491829  34.9690246  53.1521305  43.6853797  32.8208663
  53.0363803  43.1249785  32.1782946  52.9414412  45.0675121  32.4232571
  53.5247658  45.6352871  32.9516982  53.3181394  45.2542439  30.9464170
  53.3618053  46.2044554  30.7587430  54.1878725  44.8535368  30.7980009
  52.3448894  44.6304363  29.9383558  51.4427801  44.7051501  30.2877947
  52.4142320  45.1107645  29.0992262  52.6147015  43.1644392  29.6575836
  53.1902932  42.4757806  30.5216371  52.2515169  42.7009811  28.5569036
  51.5132231  45.5410219  32.6400112  51.2151670  46.6951527  32.3257827
  50.6205287  44.6826468  33.1373844  50.7985136  43.8820541  33.3954729
  49.2238585  45.0681869  33.2793852  48.8838993  45.3518431  32.4159827
  48.3847347  43.8807938  33.7505611  47.4606042  44.1626506  33.8378172
  48.4534892  43.1665901  33.0977518  48.7213404  43.5781892  34.6095233
  49.0820599  46.2347414  34.2512497  49.7327781  46.2832332  35.3002742
  48.2353839  47.1930308  33.8777230  47.7813348  47.1722904  33.1477379
  47.9898469  48.3865027  34.6801951  48.6496712  48.4275415  35.3895277
  48.1479816  49.6420764  33.8164391  47.6637628  49.5138545  32.9861817
  47.7821882  50.4010880  34.2976611  49.5824480  49.9615452  33.4720924
  50.0167407  49.1608516  33.1368275  49.6017464  50.6585452  32.7983287
  50.3544487  50.4484335  34.6802082  50.1781329  51.5808046  35.1251818
  51.2013527  49.5867519  35.2329327  51.2958516  48.8003638  34.8964203
  51.6607846  49.8169427  35.9222045  46.6142081  48.4079194  35.3221647
  46.4504492  49.0115966  36.3859630  45.6341008  47.7527769  34.7059148
  45.7544469  47.2755584  34.0007479  44.2454902  47.7689051  35.1523345
  44.1824172  48.1674059  36.0337293  43.3881275  48.5761989  34.1729735
  43.9191340  49.3126861  33.8299870  43.1241915  47.9964235  33.4410062
  42.1422770  49.1534699  34.7672560  42.1443195  50.4247459  35.3148929
  42.9333134  50.9175962  35.3287152  40.9875168  50.9676887  35.8530589
  41.0026248  51.8200164  36.2244755  39.8185791  50.2451728  35.8376467
  39.0416681  50.6069795  36.1986206  39.8000623  48.9844283  35.2872381
  39.0101487  48.4938693  35.2760433  40.9601403  48.4439759  34.7488079
  40.9414473  47.5905508  34.3793771  43.7756761  46.3250943  35.2224439
  43.7653864  45.6318531  34.1998083  43.3895003  45.8666485  36.4126560
  43.3151320  46.3535864  37.1170669  43.0511215  44.4615908  36.6266577
  43.1529832  43.9795032  35.7902482  43.9675835  43.8024314  37.6722113
  43.8575576  44.2554369  38.5231321  43.5930995  42.3414089  37.8611059
  44.1831485  41.9484232  38.5233736  42.6733489  42.2877892  38.1636696
  43.6915506  41.8787521  37.0141697  45.4372810  43.9320992  37.2472957
  45.9973857  43.5116228  37.9188694  45.5582152  43.4923560  36.3916720
  45.6614252  44.8731247  37.1703835  41.5915906  44.3731174  37.0473711
  41.1902174  45.0110704  38.0319825  40.8194519  43.5998520  36.2986486
  41.1110475  43.1438480  35.6303542  39.3854951  43.4342372  36.5249882
  39.0672526  44.1276839  37.1253201  38.5820904  43.5072752  35.2206320
  38.7159174  42.6762089  34.7385614  37.0925260  43.6384544  35.5302431
  36.6000961  43.6832530  34.6961784  36.8080534  42.8651296  36.0426434
  36.9481453  44.4483197  36.0449960  39.0611484  44.6503399  34.3302132
  40.0057891  44.5277282  34.1474202  38.5619683  44.6275132  33.4979547
  38.8885147  45.9845031  34.9175293  39.2150861  46.6502805  34.2917701
  37.9458412  46.1324979  35.0952404  39.3917831  46.0323998  35.7453408
  39.1676234  42.0768013  37.1868294  39.5836180  41.0563723  36.6200401
  38.5033675  42.0145566  38.3311496  38.1754821  43.1067010  39.2658542
  37.5965105  43.7572189  38.8369201  38.9858942  43.5185352  39.6029221
  37.4360109  42.3950816  40.3853516  36.4791981  42.4058597  40.2260188
  37.6462240  42.7958558  41.2431974  37.9387783  40.9883786  40.3494407
  37.3000964  40.3775595  40.7502852  38.8085454  40.9158892  40.7707501
  38.0544639  40.7199891  38.8523535  38.7046991  40.0204142  38.6803211
  36.6952087  40.3520402  38.2677853  35.9856286  41.1816664  37.7035456
  36.3203533  39.0855677  38.4577740  36.7972022  38.4785237  38.8366483
  35.0086027  38.6436584  38.0072326  34.9193352  38.8206501  37.0585639
  34.9269596  37.6875019  38.1487397  33.8624671  39.3305606  38.7288214
  32.7641274  39.4671623  38.1750237  34.1087735  39.7926020  39.9530995
  34.8905639  39.7782768  40.3126835  33.0922107  40.3737247  40.8259880
  32.3665169  40.7342769  40.2921943  32.5236386  39.3220231  41.7896054
  33.2309077  39.0342939  42.3877912  31.8052058  39.7249225  42.3015286
  31.9750601  38.1054151  41.1133690  30.6674108  38.0080817  40.6914571
  30.0746758  38.6261777  40.7666603  30.4718761  36.8236088  40.1415951
  29.6710408  36.5179250  39.7807706  31.5985186  36.1383522  40.2121220
  32.5577226  36.9200646  40.8046838  33.4404802  36.6783870  40.9731382
  33.7320467  41.5034970  41.6144590  34.6819186  41.2638291  42.3614501
  33.2214092  42.7161500  41.4533783  32.6316125  42.9206826  40.8611561
  33.6283228  43.8187673  42.2852398  32.8446487  44.3265504  42.5454709
  34.0468813  43.4731520  43.0886070  34.6041464  44.7665414  41.6172139
  34.7606113  44.8058049  40.3955040  35.3009637  45.5323155  42.4705577
  35.3571129  45.3736286  43.3136512  36.0400781  46.7221538  42.0543465
  35.5057644  47.2289882  41.4226743  36.3408687  47.6143876  43.2551737
  36.8689663  47.0990169  43.8845027  36.8658228  48.3676461  42.9422553
  35.1629239  48.1856580  44.0291693  34.6288615  47.4606629  44.3896084
  35.7188249  48.9991338  45.1862598  34.9803048  49.3728510  45.6926239
  36.2489762  48.4179337  45.7542106  36.2724402  49.7120553  44.8332981
  34.2820354  49.0354259  43.1320306  33.5428280  49.3843630  43.6536744
  34.8096752  49.7675730  42.7745241  33.9462213  48.4851145  42.4074401
  37.3595342  46.3503133  41.3831773  38.1089183  45.5165406  41.9021683
  37.6946114  46.9852476  40.2617020  36.8796904  47.8991844  39.4435863
  37.0004622  48.8168965  39.7352154  35.9467983  47.6362405  39.4647255
  37.4494415  47.7037139  38.0783753  37.3322459  48.5010287  37.5399532
  37.0446886  46.9352667  37.6450960  38.9090423  47.4498027  38.2919439
  39.4016264  48.2858028  38.3122822  39.2583136  46.8637992  37.6015444
  39.0113653  46.7590176  39.6540408  39.1725969  45.8106022  39.5297567
  40.1285462  47.3663033  40.4928273  39.9136799  48.1679506  41.4075792
  41.3495249  46.9729079  40.1652604  41.5236910  46.3865568  39.5604005
  42.5246809  47.5174536  40.8172086  42.4068132  48.4672664  40.9737202
  42.6677562  47.0728668  41.6667885  43.7391350  47.3108178  39.9435251
  43.6485876  47.3653514  38.7103368  44.8859097  47.0931849  40.5837982
  44.9643845  47.1108320  41.4392561  46.1237477  46.8027945  39.8994250
  46.0229457  46.9855304  38.9527468  46.8292885  47.3688719  40.2502420
  46.5393041  45.3539594  40.0695387  45.7620724  44.4941575  40.4860210
  47.8033963  45.0876944  39.7299258  48.3653271  45.6591158  39.4180199
  48.3231263  43.7343335  39.8810253  47.7354746  43.1249524  39.4063821
  49.7133889  43.6145772  39.2503898  50.2020500  44.4346575  39.4240550
  50.1752308  42.8675893  39.6607995  49.7184875  43.3865306  37.7315544
  49.1713537  44.0693562  37.3129918  51.1271415  43.5073454  37.1628323
  51.0942575  43.3578448  36.2050165  51.4670409  44.3957414  37.3474023
  51.6948287  42.8409459  37.5822567  49.1225436  42.0279956  37.3672640
  49.1440740  41.9234536  36.4026079  49.6479198  41.3302656  37.7881639
  48.2065818  41.9897308  37.6836433  48.3659573  43.2852509  41.3342573
  48.5378747  42.0876454  41.5901076  48.2044647  44.2029651  42.2901641
  48.1476434  45.0495413  42.1508439  48.1077760  43.8169007  43.6940304
  48.8991186  43.3111013  43.9337026  48.0605132  45.0658737  44.5860066
  47.9246304  44.7912945  45.5063381  48.8998988  45.5452828  44.5035948
  46.9361485  46.0201539  44.2105024  46.2250164  45.7608179  43.2183981
  46.7648964  47.0402772  44.9092728  46.8941621  42.9364589  43.9563617
  46.8542894  42.2302227  44.9731259  45.8989381  42.9593889  43.0681407
  45.8461415  43.4849263  42.3900302  44.7850413  42.0304490  43.2238444
  44.3801410  42.1683036  44.0949120  43.7099056  42.2683239  42.1635950
  44.1414652  42.2194691  41.2961761  43.0673047  41.5444365  42.2335102
  42.9016198  43.5708769  42.1765444  43.4223120  44.2647487  41.7430397
  41.6190374  43.3984155  41.3912478  41.1228429  44.2317666  41.4107175
  41.8390179  43.1657335  40.4753539  41.0937986  42.6909501  41.7954346
  42.5852977  44.0407604  43.5738360  42.0753981  44.8643769  43.5208805
  42.0657917  43.3577544  44.0260631  43.4163064  44.1956488  44.0493222
  45.2651896  40.5876952  43.1543670  44.6382093  39.6984514  43.7442613
  46.3522302  40.3282206  42.4172737  46.7912970  40.9098735  41.9617198
  46.8801729  38.9692113  42.3443963  46.1551257  38.3660586  42.1176556
  47.9380127  38.8613971  41.2440849  48.4298406  39.6962667  41.2065341
  48.5433181  38.1376971  41.4686080  47.3926601  38.5868292  39.8433694
  46.9304227  37.7338895  39.8503281  46.3936781  39.6518942  39.4170428
  46.0706859  39.4425416  38.5263388  45.6526302  39.6586427  40.0438748
  46.8340732  40.5161380  39.4161773  48.5569038  38.4796482  38.8493961
  48.2008193  38.3059468  37.9639732  49.0505446  39.3149896  38.8501270
  49.1379286  37.7524047  39.1217929  47.4479094  38.5271701  43.6871085
  47.2061719  37.3970726  44.1217918  48.2093446  39.4026458  44.3581747
  48.4443347  40.1763506  44.0648482  48.7114705  39.0799456  45.6906896
  49.1857189  38.2349909  45.6569118  49.6882103  40.1580727  46.1644835
  50.4415217  40.1851475  45.5543123  49.2318734  41.0145102  46.1614059
  50.2362284  39.9270838  47.5716172  50.7423882  40.7060334  47.8508337
  49.5000997  39.7678171  48.1820553  51.1613794  38.7158481  47.6086147
  50.6935672  37.9478952  47.2460763  51.9526020  38.9041380  47.0804464
  51.6068252  38.3745950  49.0173934  51.5894993  39.1762521  49.5651265
  51.0165767  37.6989020  49.3882447  52.9949559  37.8376972  49.0120085
  53.2476400  37.6396021  49.8421796  53.0333965  37.0995637  48.5148413
  53.5540416  38.4428093  48.6758159  47.5677177  38.9412635  46.6839800
  47.5661227  38.0333379  47.5269477  46.5931466  39.8464798  46.6092092
  46.5922320  40.5210659  46.0754135  45.4167929  39.7504082  47.4599249
  45.6818027  39.8685427  48.3843826  44.4184545  40.8484748  47.1028549
  44.7957124  41.7099354  47.3414971  44.2381000  40.8160048  46.1504495
  43.1237462  40.6952205  47.8246197  42.9973780  40.9349291  49.1762823
  41.7538063  40.6856710  49.5475299  41.4127972  40.7820076  50.4067581
  41.0796606  40.2667723  48.4902048  40.2492999  40.0458058  48.4824613
  41.9174235  40.2566646  47.4031076  41.6932650  40.0073434  46.5358009
  44.7385907  38.3924576  47.3266544  44.3966046  37.7530848  48.3319807
  44.5025474  37.9578478  46.0831883  44.7312997  38.3761457  45.3676499
  43.8127023  36.6909488  45.8462691  42.9644256  36.7040338  46.3162483
  43.5206980  36.4984368  44.3515402  44.3539432  36.3981780  43.8651663
  42.6738424  35.2527010  44.1314084  42.4927352  35.1379391  43.1850422
  43.1437183  34.4703791  44.4597452  41.8311022  35.3368206  44.6053176
  42.7965162  37.6313012  43.8454325  43.2500223  38.3310713  43.9480586
  44.6287636  35.5247909  46.3865484  44.0696884  34.5899207  46.9680686
  45.9483935  35.5655745  46.2081207  46.3696635  36.1803186  45.7795157
  46.7967983  34.5143090  46.7600022  46.5197095  33.6597020  46.3932617
  48.2608521  34.7484832  46.3645242  48.5485318  35.6167412  46.6884339
  49.1744704  33.6797028  46.9655426  50.0939929  33.8448436  46.7045601
  49.1136392  33.6973605  47.9336009  48.9096190  32.8018616  46.6488462
  48.3846463  34.7062290  44.9345345  47.9064035  35.3031541  44.5868318
  46.6437426  34.4475251  48.2717932  46.5203821  33.3581145  48.8429699
  46.6376415  35.6076745  48.9351822  46.7242741  36.3822558  48.5708959
  46.4747936  35.6334763  50.3883047  47.2080734  35.1494008  50.7980321
  46.4993232  37.0719438  50.9133290  45.8762549  37.6056596  50.3961295
  46.2349826  37.0693433  51.8472322  47.8674639  37.7262108  50.8170712
  48.8781405  37.0691012  50.5895433  47.8978789  39.0399107  51.0072934
  48.6459209  39.4627081  50.9658751  47.1701375  39.4683423  51.1675301
  45.1734629  34.9601479  50.8001145  45.1428830  34.1643437  51.7463859
  44.0794764  35.2816870  50.1055930  44.0714967  35.7860822  49.4090854
  42.7653729  34.7766732  50.4997375  42.6541069  34.9063124  51.4552466
  41.6535386  35.5652373  49.7848409  41.7915324  35.5164976  48.8256062
  40.3004690  34.9674998  50.1012039  39.6143318  35.4771518  49.6426665
  40.2846294  34.0457221  49.8003717  40.1554051  35.0053942  51.0598099
  41.6850679  37.0388077  50.2013996  40.9762345  37.5131761  49.7382854
  41.5508124  37.0986149  51.1599029  42.5462098  37.4164419  49.9630277
  42.6534962  33.2852203  50.2167959  42.0785538  32.5273334  51.0094942
  43.1628339  32.8478071  49.0695916  43.5597355  33.3426993  48.4884523
  43.0803442  31.4367462  48.7013299  42.1582819  31.1464450  48.7767580
  43.5161678  31.2489998  47.2360749  44.3593494  31.7074261  47.0975533
  43.7267392  29.7701804  46.9137802  43.9991618  29.6854061  45.9869710
  44.4165615  29.4145416  47.4958139  42.8938537  29.2937486  47.0594287
  42.4850928  31.8740081  46.3061610  42.7718193  31.7476742  45.3882511
  41.6294726  31.4411755  46.4484566  42.4149661  32.8205041  46.5047298
  43.9160952  30.5878474  49.6488952  43.4958157  29.5037655  50.0601197
  45.1066387  31.0604355  50.0138933  45.4508922  31.7991321  49.7383413
  45.9350081  30.3090834  50.9491644  46.0315111  29.4013629  50.6217324
  47.3316401  30.9293905  51.0260799  47.2458524  31.8888808  51.1416132
  47.8064895  30.5458764  51.7802026  48.1582904  30.6773054  49.7685703
  48.1360823  29.7300845  49.5615309  47.7808177  31.1866639  49.0346947
  49.6083674  31.0880822  49.9258889  49.6630398  32.0526492  50.0062351
  49.9807324  30.6617656  50.7130556  50.4291432  30.6592986  48.7127090
  50.3071170  29.7077221  48.5708185  50.1233594  31.1517143  47.9357329
  51.8889486  30.9170859  48.8770688  52.1997500  30.4697232  49.5807371
  52.3280807  30.6534480  48.1493670  52.0311282  31.7868533  49.0010674
  45.2878299  30.2406478  52.3263623  45.3806139  29.2143301  53.0114157
  44.6422960  31.3283056  52.7591294  44.6037222  32.0781791  52.3394547
  43.9314128  31.3056322  54.0314965  44.5489571  31.0427885  54.7322356
  43.4017407  32.7005962  54.3688909  42.9334009  32.6633184  55.2174840
  44.1496780  33.3155515  54.4304598  42.7952893  32.9861223  53.6674776
  42.7956704  30.2897585  54.0015142  42.6150901  29.5235631  54.9531918
  42.0340925  30.2490068  52.9076987  42.1131358  30.7700199  52.2279197
  40.9685357  29.2586044  52.8069972  40.3975400  29.3270437  53.5876001
  40.1124305  29.5143084  51.5718999  39.8358407  30.4445407  51.5670023
  40.6370551  29.3216939  50.7794545  38.8812882  28.6680879  51.5268947
  37.7439167  28.9738941  52.2470708  36.8309014  28.0428542  52.0345786
  35.9759075  28.0268670  52.4008241  37.3376487  27.1400331  51.2146919
  36.9290998  26.4391314  50.9282192  38.6198500  27.5040117  50.8859409
  39.1982922  27.0418293  50.3241962  41.5403590  27.8482448  52.7638123
  40.9688263  26.9162977  53.3395648  42.6674503  27.6751725  52.0772817
  43.0653221  28.2893481  51.6257594  43.3283161  26.3789341  52.0449045
  42.7631206  25.7446298  51.5758788  44.6480599  26.4931917  51.2848450
  45.1414577  27.2631286  51.6085576  45.5096927  25.2456033  51.4862108
  46.3426007  25.3358443  50.9972437  45.7086250  25.1289466  52.4290210
  45.0376464  24.4614478  51.1644835  44.3714563  26.6545336  49.8911075
  43.9172940  27.3498792  49.7666682  43.5688949  25.8519758  53.4480149
  43.4144865  24.6566985  53.7036948  43.9480942  26.7350911  54.3729183
  43.9953140  27.5828430  54.2362582  44.3215571  26.3388902  55.7225935
  44.6375353  25.4215547  55.7014867  45.4732650  27.2167388  56.2202971
  45.2271637  28.1494340  56.1131724  45.6359807  27.0224888  57.1560612
  46.7668692  26.9844716  55.4617496  46.9354463  25.9806802  54.7626434
  47.7019935  27.9150807  55.6111862  48.4568691  27.8353763  55.2061924
  47.5512974  28.6008359  56.1078889  43.1621284  26.4078179  56.7146943
  43.3893176  26.2808361  57.9218773  41.9380079  26.6067935  56.2417339
  41.7539713  26.6956637  55.4071504  40.7631357  26.6946933  57.1152154
  40.8407382  27.4856188  57.6712808  39.4965927  26.8292908  56.2702310
  38.7510635  27.0547893  56.8482124  39.6281946  27.5243445  55.6077868
  39.1561983  25.5413799  55.5421745  39.9533871  25.2088914  55.0995534
  38.8383150  24.8886078  56.1862745  38.0817113  25.7259193  54.4944112
  37.2909776  26.1099258  54.9046406  38.4129795  26.3014730  53.7879883
  37.7220017  24.4384113  53.9129998  36.9772296  24.0825634  54.1529327
  38.4607756  23.7912051  53.0157333  39.6073368  24.3130679  52.5958265
  39.8728025  25.0708991  52.9016956  40.0839361  23.8929083  52.0154516
  38.0561075  22.6181565  52.5433163  37.3131259  22.2792762  52.8139884
  38.5326661  22.2004347  51.9627043  40.6213453  25.4814594  58.0318789
  41.1767878  24.4164641  57.7632273  39.8495015  25.6434432  59.1043696
  39.3979762  26.5318072  59.2726587  39.6282058  24.5747379  60.0570801
  39.1686511  23.7261500  59.5515773  40.9418483  24.1151398  60.6820890
  41.6097870  23.7528585  59.9005168  41.4098190  24.9527425  61.1997366
  40.6842372  23.0631575  61.6147362  41.5110842  22.7738999  62.0079664
  38.7098673  25.0258636  61.1835169  38.2599879  26.1695468  61.2012787
  38.4071966  24.2523138  62.0889793  32.5804721  30.8688936  38.6723822
  32.2202229  34.2664649  39.3588204  31.4738678  32.3529705  39.0296514
  30.4705080  32.2593644  38.6908239  30.1069339  33.4586063  46.6544991
  28.1002085  31.3974101  40.5523295  27.9907550  32.2888746  41.7735076
  26.7676511  32.4588829  42.4028438  26.6666788  33.2795867  43.5277100
  27.7859980  33.9363690  44.0230369  29.0123959  33.7650760  43.3883623
  29.1217774  32.9496077  42.2694855  30.3910780  32.9585387  41.8481291
  31.1262595  33.7258138  42.6386163  30.3253805  34.2630658  43.6560829
  30.6862487  35.2553040  44.7275508  30.6004119  35.0157674  46.0839321
  30.9226193  36.0042709  46.9928904  31.3149873  37.2564767  46.5562040
  31.3865834  37.5186396  45.1987031  31.0600370  36.5180793  44.2888450
  32.6036866  33.9300669  42.4562132  33.3589755  34.1734842  43.4331265
  33.0929148  33.7962481  41.3211351  29.0228022  31.4093347  40.2212802
  27.4981990  31.7271214  39.8531392  27.8507744  30.4814043  40.7938121
  25.9763037  32.0021149  42.0602548  25.8003422  33.4039922  43.9601312
  27.7103894  34.5203284  44.8014903  30.7104242  32.4804348  41.1376506
  30.8733965  35.8176400  47.9505871  31.5453353  37.9507583  47.2016775
  31.6661477  38.3979396  44.8825556  31.1111213  36.7014650  43.3312047
  37.0411568  53.1801072  13.4114067  26.0411568  54.1801072  39.4114067
  25.0411568  29.1801072  39.4114067  -0.9588432  47.1801072  13.4114067
   0.0411568  23.1801072  29.4114067  12.0411568  32.1801072  68.4114067
  53.0411568  19.1801072   1.4114067  44.0411568  77.1801072  43.4114067
  12.0411568   9.1801072  55.4114067  72.0411568  41.1801072   9.4114067
  -0.9588432  46.1801072  40.4114067  48.0411568  26.1801072  79.4114067
  23.0025525  26.7412418  36.9732097  23.8737706  26.3547872  36.8867182
  23.0624912  27.2966283  37.7509514  48.5470767  47.6222294  46.2971049
  49.4182949  47.2357748  46.2106134  48.6070155  48.1776159  47.0748466
  45.5597240  48.8724057  45.7281322  46.4309421  48.4859510  45.6416407
  45.6196628  49.4277922  46.5058739  29.0265315  23.4904365  39.5816933
  29.8977497  23.1039818  39.4952019  29.0864703  24.0458230  40.3594351
  19.8273016  26.7295312  26.2968575  20.6985198  26.3430766  26.2103660
  19.8872404  27.2849177  27.0745992  23.2377192  28.9747351  32.0843995
  24.1089373  28.5882804  31.9979081  23.2976579  29.5301216  32.8621413
  35.4672192  32.0872633  43.9169187  36.3384374  31.7008086  43.8304272
  35.5271580  32.6426498  44.6946604  16.8880628  35.7831998  16.4623677
  17.7592810  35.3967451  16.3758762  16.9480016  36.3385863  17.2401094
  52.4603284  40.2270721  28.0380318  53.3315465  39.8406174  27.9515403
  52.5202672  40.7824586  28.8157735  21.6111909  43.8092981  37.3931312
  22.4824090  43.4228434  37.3066397  21.6711296  44.3646846  38.1708729
  23.0582657  19.9407604  29.5143147  23.9294839  19.5543057  29.4278232
  23.1182045  20.4961469  30.2920564  34.2445370  21.8634803  21.7263939
  35.1157552  21.4770256  21.6399025  34.3044758  22.4188668  22.5041357
  24.9695462  47.7719521  19.7242908  25.8407643  47.3854975  19.6377994
  25.0294850  48.3273386  20.5020326  48.2699560  27.5178141  22.0904931
  49.1411741  27.1313595  22.0040016  48.3298947  28.0732006  22.8682348
  49.9523792  34.7211440  50.4578456  50.8235974  34.3346893  50.3713541
  50.0123180  35.2765305  51.2355873  20.1148819  33.3299626  27.3969506
  20.9861001  32.9435080  27.3104591  20.1748207  33.8853491  28.1746923
  19.1795720  45.7529223  22.2507938  20.0507901  45.3664676  22.1643024
  19.2395107  46.3083088  23.0285356  52.3652935  31.6671551  45.3004691
  53.2365116  31.2807004  45.2139776  52.4252322  32.2225416  46.0782108
  49.3183599  44.4845752  51.5106931  50.1895780  44.0981206  51.4242016
  49.3782987  45.0399617  52.2884348  52.6108433  46.4326065  35.6628244
  53.4820614  46.0461518  35.5763329  52.6707820  46.9879930  36.4405661
  32.7696941  34.1925213  14.6190772  33.6409122  33.8060667  14.5325857
  32.8296328  34.7479078  15.3968189  31.2078458  43.9865553  39.7484364
  32.0790639  43.6001006  39.6619449  31.2677846  44.5419418  40.5261781
  49.7170329  26.4637608  43.8105919  50.5882510  26.0773062  43.7241004
  49.7769716  27.0191473  44.5883336  31.4873108  44.1340608  45.8987271
  32.3585289  43.7476061  45.8122356  31.5472495  44.6894473  46.6764688
  39.3347773  26.5501698  29.3322136  40.2059954  26.1637151  29.2457221
  39.3947161  27.1055563  30.1099553  28.5699830  38.7871764  34.7382707
  29.4412012  38.4007217  34.6517792  28.6299218  39.3425629  35.5160124
  50.9379642  23.5863746  38.0838982  51.8091823  23.1999199  37.9974067
  50.9979029  24.1417611  38.8616399  35.9222392  39.2440432  43.4875085
  36.7934573  38.8575885  43.4010170  35.9821779  39.7994297  44.2652502
  22.0217637  56.5249722  22.0347150  22.8929818  56.1385175  21.9482235
  22.0817024  57.0803587  22.8124567  43.0203040  30.2294149  57.4632762
  43.8915221  29.8429603  57.3767848  43.0802427  30.7848014  58.2410180
  18.0752545  34.6181016  46.7271824  18.9464726  34.2316470  46.6406909
  18.1351933  35.1734881  47.5049241  36.1886179  37.7224260  41.1634763
  37.0598360  37.3359714  41.0769848  36.2485567  38.2778125  41.9412180
  40.9666380  20.2658082  28.4064395  41.8378561  19.8793536  28.3199480
  41.0265768  20.8211947  29.1841812  28.1148002  37.7118446  14.5657908
  28.9860183  37.3253899  14.4792993  28.1747389  38.2672311  15.3435325
  20.1385037  48.8317820  32.3824397  21.0097218  48.4453274  32.2959483
  20.1984425  49.3871685  33.1601815  51.5306757  48.5123200  30.3719961
  52.4018938  48.1258654  30.2855046  51.5906145  49.0677065  31.1497378
  54.7160372  43.3557397  37.2781467  55.5872553  42.9692850  37.1916553
  54.7759759  43.9111262  38.0558885  44.3343228  45.4622944  22.0000105
  45.2055410  45.0758397  21.9135190  44.3942616  46.0176809  22.7777522
  49.5340210  23.6740226  46.6535672  50.4052392  23.2875679  46.5670757
  49.5939598  24.2294091  47.4313089  44.8077292  22.9688186  22.9766013
  45.6789473  22.5823639  22.8901098  44.8676679  23.5242051  23.7543430
  47.6255964  23.6241567  23.3046287  48.4968146  23.2377020  23.2181372
  47.6855352  24.1795432  24.0823704  29.1214347  55.0705632  40.0767839
  29.9926528  54.6841085  39.9902924  29.1813734  55.6259497  40.8545256
  33.9221921  35.7435734  48.9178883  34.7934102  35.3571188  48.8313969
  33.9821308  36.2989599  49.6956301  36.6093800  33.8777998  15.0683190
  37.4805982  33.4913451  14.9818275  36.6693188  34.4331863  15.8460607
  35.1798884  44.1097116  52.8298773  36.0511065  43.7232570  52.7433858
  35.2398272  44.6650981  53.6076190  51.3569784  38.6994807  25.8076192
  52.2281966  38.3130261  25.7211277  51.4169172  39.2548672  26.5853609
  23.7996462  45.8036205  21.3376853  24.6708644  45.4171658  21.2511938
  23.8595850  46.3590070  22.1154270  26.9997647  28.7558898  42.3436080
  27.8709829  28.3694351  42.2571165  27.0597035  29.3112763  43.1213497
  21.2455419  31.5315253  33.7320826  22.1167600  31.1450706  33.6455912
  21.3054806  32.0869118  34.5098244  48.3662623  25.4636725  38.2689824
  49.2374804  25.0772178  38.1824909  48.4262011  26.0190590  39.0467241
  38.9908773  33.5434176  34.9632520  39.8620954  33.1569629  34.8767606
  39.0508160  34.0988041  35.7409938  27.7431887  34.5368418  50.4023275
  28.6144068  34.1503871  50.3158360  27.8031274  35.0922283  51.1800692
  44.8185890  22.0839588  33.7005885  45.6898071  21.6975041  33.6140970
  44.8785278  22.6393453  34.4783302  51.6138791  25.7515762  27.7271331
  52.4850972  25.3651216  27.6406416  51.6738179  26.3069627  28.5048748
  50.4165944  46.0456283  27.0291086  51.2878125  45.6591736  26.9426171
  50.4765332  46.6010148  27.8068503  19.0965669  50.4256299  23.3296848
  19.9677851  50.0391753  23.2431933  19.1565057  50.9810164  24.1074265
  46.4291633  26.5492757  48.1181827  47.3003815  26.1628210  48.0316912
  46.4891021  27.1046622  48.8959244  42.2023821  23.0018605  55.6709812
  43.0736002  22.6154058  55.5844898  42.2623209  23.5572470  56.4487229
  31.0565630  46.3914233  41.4540174  31.9277811  46.0049686  41.3675259
  31.1165017  46.9468098  42.2317591  32.2593134  40.8425592  45.1017796
  33.1305315  40.4561046  45.0152881  32.3192522  41.3979457  45.8795213
  53.0404944  30.7125638  29.2584666  53.9117125  30.3261091  29.1719751
  53.1004331  31.2679503  30.0362083  36.7294639  21.3290092  43.1145955
  37.6006820  20.9425545  43.0281040  36.7894026  21.8843957  43.8923372
  32.1512761  24.1567367  18.8640822  33.0224942  23.7702821  18.7775908
  32.2112148  24.7121232  19.6418240  36.1302162  29.2540860  28.0021433
  37.0014344  28.8676314  27.9156518  36.1901550  29.8094725  28.7798850
  50.3662313  33.2870386  43.6516851  51.2374494  32.9005839  43.5651936
  50.4261700  33.8424251  44.4294268  51.0754732  23.8335500  24.8988912
  51.9466913  23.4470953  24.8123997  51.1354119  24.3889365  25.6766329
  49.7283904  49.5620082  25.2311366  50.5996085  49.1755535  25.1446451
  49.7883291  50.1173947  26.0088783  36.0420621  23.2271291  37.7451045
  36.9132802  22.8406744  37.6586130  36.1020008  23.7825156  38.5228462
  48.3754986  49.5759027  38.2848569  49.2467167  49.1894480  38.1983654
  48.4354373  50.1312892  39.0625986  34.4105344  27.2868520  41.9864552
  35.2817525  26.9003973  41.8999638  34.4704732  27.8422385  42.7641970
  39.9686569  22.4031807  45.4832461  40.8398751  22.0167261  45.3967546
  40.0285957  22.9585672  46.2609878  23.3470503  22.4150317  29.0024799
  24.2182684  22.0285771  28.9159884  23.4069891  22.9704182  29.7802216
  18.2732648  38.2021844  21.8199501  19.1444830  37.8157297  21.7334586
  18.3332036  38.7575709  22.5976918  45.2372867  21.0616536  38.2259666
  46.1085048  20.6751989  38.1394751  45.2972255  21.6170401  39.0037083
  20.0057985  30.2054232  21.5043739  20.8770166  29.8189686  21.4178825
  20.0657372  30.7608097  22.2821157  57.8791744  37.6720757  33.6021998
  58.7503925  37.2856210  33.5157083  57.9391132  38.2274622  34.3799415
  16.2520440  44.9965906  28.4614583  17.1232622  44.6101359  28.3749668
  16.3119828  45.5519771  29.2392000  42.0499054  22.7926696  52.1376540
  42.9211235  22.4062150  52.0511626  42.1098441  23.3480561  52.9153958
  41.4451013  24.8768869  23.8205194  42.3163194  24.4904322  23.7340280
  41.5050400  25.4322734  24.5982612  47.0648616  34.0232572  53.7786693
  47.9360798  33.6368025  53.6921778  47.1248004  34.5786437  54.5564110
  39.2805047  45.7355254  44.4375233  40.1517228  45.3490707  44.3510318
  39.3404434  46.2909119  45.2152650  35.8380339  24.9083879  50.4178755
  36.7092521  24.5219332  50.3313840  35.8979727  25.4637744  51.1956172
  20.8086801  26.8010816  32.3217719  21.6798982  26.4146269  32.2352804
  20.8686189  27.3564681  33.0995136  41.4802104  25.0066361  28.9276064
  42.3514285  24.6201815  28.8411150  41.5401491  25.5620226  29.7053481
  36.4215771  33.6794180  34.8203265  37.2927953  33.2929633  34.7338350
  36.4815159  34.2348045  35.5980682  35.5978216  35.0049430  41.9217537
  36.4690397  34.6184883  41.8352622  35.6577604  35.5603295  42.6994954
  47.1602015  19.8774488  26.0410630  48.0314197  19.4909942  25.9545716
  47.2201403  20.4328353  26.8188048  37.3658756  45.8747587  46.4044464
  38.2370937  45.4883041  46.3179549  37.4258144  46.4301452  47.1821881
  40.9977403  47.7954042  44.0003706  41.8689584  47.4089495  43.9138792
  41.0576790  48.3507907  44.7781124  18.3430271  39.4698893  36.3432848
  19.2142452  39.0834347  36.2567934  18.4029659  40.0252758  37.1210266
  42.3133779  21.9302466  29.9100357  43.1845961  21.5437919  29.8235442
  42.3733167  22.4856331  30.6877774  30.1050570  30.5448865  48.6893638
  30.9762751  30.1584318  48.6028723  30.1649958  31.1002730  49.4671055
  29.9816984  26.1060851  42.2184165  30.8529165  25.7196304  42.1319250
  30.0416371  26.6614716  42.9961582  18.5031129  33.4534936  32.7059997
  19.3743310  33.0670389  32.6195082  18.5630517  34.0088801  33.4837414
  50.8301746  40.3811831  41.6446392  51.7013928  39.9947284  41.5581477
  50.8901134  40.9365696  42.4223809  21.1282922  22.2987323  35.9188630
  21.9995103  21.9122777  35.8323716  21.1882310  22.8541188  36.6966048
  31.2110159  55.1371331  26.3277851  32.0822340  54.7506785  26.2412936
  31.2709547  55.6925196  27.1055268  51.9625493  43.8035583  25.9311770
  52.8337674  43.4171036  25.8446855  52.0224880  44.3589448  26.7089187
  24.4323351  33.8232749  16.4677532  25.3035532  33.4368203  16.3812617
  24.4922738  34.3786614  17.2454949  30.8932264  27.1817921  44.1927004
  31.7644445  26.7953374  44.1062089  30.9531652  27.7371786  44.9704421
  32.2259629  27.4558011  48.1054461  33.0971810  27.0693465  48.0189546
  32.2859017  28.0111876  48.8831878  22.0874840  24.7536806  35.9283676
  22.9587021  24.3672259  35.8418762  22.1474228  25.3090671  36.7061094
  22.9979698  26.7752697  24.9911304  23.8691879  26.3888150  24.9046389
  23.0579086  27.3306562  25.7688721  30.3532012  37.2264692  14.0541929
  31.2244194  36.8400146  13.9677014  30.4131400  37.7818557  14.8319346
  24.1926226  33.7980477  50.1813914  25.0638407  33.4115930  50.0949000
  24.2525614  34.3534342  50.9591332  46.3483558  23.4959481  36.4828706
  47.2195739  23.1094935  36.3963791  46.4082946  24.0513346  37.2606123
  53.5357947  32.6130537  32.5717811  54.4070129  32.2265990  32.4852896
  53.5957335  33.1684402  33.3495228  48.4196650  47.2966089  42.0980684
  49.2908831  46.9101543  42.0115769  48.4796037  47.8519954  42.8758101
  43.4209871  22.7141290  21.0558708  44.2922053  22.3276743  20.9693793
  43.4809259  23.2695155  21.8336125  29.6204402  21.9473080  41.6155724
  30.4916583  21.5608534  41.5290809  29.6803790  22.5026945  42.3933141
  35.6648716  21.5453338  53.8304865  36.5360897  21.1588792  53.7439951
  35.7248104  22.1007203  54.6082283  39.8556118  32.8879459  52.8760162
  40.7268299  32.5014912  52.7895248  39.9155505  33.4433324  53.6537579
  26.0710897  25.0308742  21.8053539  26.9423078  24.6444195  21.7188624
  26.1310284  25.5862607  22.5830956  41.4152895  30.2513962  19.7435425
  42.2865076  29.8649416  19.6570510  41.4752283  30.8067827  20.5212842
  26.0868778  52.9359759  32.4137894  26.9580959  52.5495212  32.3272980
  26.1468166  53.4913624  33.1915312  22.6867416  18.6568418  34.6953313
  23.5579597  18.2703872  34.6088398  22.7466804  19.2122283  35.4730730
  39.8935178  39.1652068  14.6766882  40.7647359  38.7787521  14.5901967
  39.9534566  39.7205933  15.4544299  28.1480741  41.6457655  34.2465250
  29.0192922  41.2593109  34.1600335  28.2080129  42.2011520  35.0242667
  37.8188077  31.7156389  53.3536465  38.6900259  31.3291842  53.2671550
  37.8787465  32.2710254  54.1313882  24.4378696  48.2223846  16.1292425
  25.3090877  47.8359299  16.0427510  24.4978084  48.7777711  16.9069842
  49.4101151  47.0414509  38.1447431  50.2813332  46.6549962  38.0582516
  49.4700538  47.5968374  38.9224848  22.6531091  31.8880397  38.7712772
  23.5243272  31.5015851  38.6847857  22.7130478  32.4434262  39.5490189
  19.5022983  37.9300224  34.3868938  20.3735164  37.5435677  34.3004023
  19.5622371  38.4854089  35.1646355  34.3231140  40.7451613  17.7182644
  35.1943321  40.3587066  17.6317729  34.3830527  41.3005478  18.4960061
  16.8630224  36.0030614  33.3627697  17.7342405  35.6166068  33.2762783
  16.9229611  36.5584479  34.1405114  30.7471814  46.0781862  44.3180114
  31.6183995  45.6917315  44.2315199  30.8071201  46.6335727  45.0957531
  42.3501951  36.8006178  15.8532570  43.2214132  36.4141632  15.7667655
  42.4101338  37.3560043  16.6309987  55.9590546  41.6817834  29.6941223
  56.8302728  41.2953288  29.6076308  56.0189934  42.2371699  30.4718640
  47.6344531  19.5188725  41.5818552  48.5056712  19.1324178  41.4953637
  47.6943919  20.0742590  42.3595969  32.3367074  55.5857678  31.9997758
  33.2079255  55.1993131  31.9132843  32.3966461  56.1411543  32.7775175
  34.0645290  26.1630931  16.6240568  34.9357472  25.7766384  16.5375653
  34.1244678  26.7184796  17.4017985  36.7321657  30.3330258  14.2631018
  37.6033839  29.9465711  14.1766104  36.7921045  30.8884123  15.0408436
  30.1997374  32.9965989  24.8023463  31.0709555  32.6101442  24.7158548
  30.2596762  33.5519854  25.5800880  44.1695191  48.1159095  43.7353317
  45.0407372  47.7294548  43.6488403  44.2294578  48.6712960  44.5130735
  26.6636947  26.3207133  37.5462335  27.5349128  25.9342586  37.4597421
  26.7236335  26.8760998  38.3239753  33.3496273  20.7645864  23.8846768
  34.2208454  20.3781317  23.7981853  33.4095661  21.3199729  24.6624185
  40.8183944  23.6426447  31.0112196  41.6896125  23.2561900  30.9247281
  40.8783332  24.1980312  31.7889613  52.5702823  29.3616079  46.1927010
  53.4415005  28.9751533  46.1062095  52.6302211  29.9169944  46.9704427
  19.3148549  30.0380437  45.2887875  20.1860730  29.6515890  45.2022960
  19.3747937  30.5934302  46.0665292  47.1031031  32.8399688  18.1133281
  47.9743212  32.4535141  18.0268366  47.1630418  33.3953553  18.8910698
  30.3766234  19.6136232  25.1600534  31.2478415  19.2271685  25.0735619
  30.4365621  20.1690097  25.9377951  41.1870564  49.7045774  21.8199745
  42.0582746  49.3181227  21.7334830  41.2469952  50.2599639  22.5977162
  31.5467351  45.9386217  47.8282075  32.4179533  45.5521671  47.7417160
  31.6066739  46.4940082  48.6059492  26.4454101  40.3102417  14.3883790
  27.3166282  39.9237871  14.3018876  26.5053488  40.8656282  15.1661207
  46.7763956  42.8405887  19.4094243  47.6476137  42.4541341  19.3229329
  46.8363343  43.3959752  20.1871661  17.7448512  47.7140832  32.5844071
  18.6160693  47.3276285  32.4979156  17.8047899  48.2694697  33.3621488
  28.6098440  27.8980130  40.5310448  29.4810622  27.5115583  40.4445534
  28.6697828  28.4533995  41.3087866  52.1952445  34.1128735  49.5887636
  53.0664626  33.7264188  49.5022721  52.2551832  34.6682600  50.3665053
  38.3794415  52.5147487  38.8070030  39.2506596  52.1282940  38.7205115
  38.4393803  53.0701352  39.5847447  38.1086721  48.0837080  48.0552915
  38.9798902  47.6972533  47.9688000  38.1686109  48.6390945  48.8330332
  50.6914906  28.9345490  23.3006710  51.5627087  28.5480943  23.2141795
  50.7514294  29.4899355  24.0784127  37.5250541  23.7390583  49.3335309
  38.3962722  23.3526037  49.2470394  37.5849929  24.2944448  50.1112726
  49.6211479  38.5635928  16.5977928  50.4923661  38.1771381  16.5113014
  49.6810867  39.1189793  17.3755346  16.6933823  38.6689200  19.2557730
  17.5646004  38.2824654  19.1692815  16.7533211  39.2243065  20.0335147
  40.4152425  20.5622508  24.3492491  41.2864606  20.1757961  24.2627576
  40.4751812  21.1176373  25.1269908  36.3826896  49.4310145  49.4788752
  37.2539077  49.0445598  49.3923837  36.4426283  49.9864010  50.2566169
  40.4892841  24.1674363  26.4798943  41.3605022  23.7809817  26.3934028
  40.5492229  24.7228228  27.2576360  43.1173201  54.8834647  26.2559090
  43.9885382  54.4970100  26.1694175  43.1772588  55.4388512  27.0336507
  16.6912870  33.7618384  23.6226089  17.5625051  33.3753838  23.5361175
  16.7512257  34.3172249  24.4003506  47.9724183  52.8332254  26.8404651
  48.8436365  52.4467707  26.7539736  48.0323571  53.3886119  27.6182068
  51.0730538  37.2685823  43.5370895  51.9442719  36.8821277  43.4505981
  51.1329926  37.8239688  44.3148312  51.6607674  35.3763172  42.1005132
  52.5319855  34.9898625  42.0140218  51.7207061  35.9317037  42.8782550
  22.8293728  52.0217104  38.0864613  23.7005909  51.6352557  37.9999698
  22.8893116  52.5770969  38.8642030  41.7543136  41.4381718  14.1028179
  42.6255317  41.0517171  14.0163265  41.8142524  41.9935583  14.8805597
  31.8029054  35.0649459  50.5966294  32.6741235  34.6784913  50.5101379
  31.8628442  35.6203324  51.3743711  33.1410927  28.7402890  50.9645636
  34.0123108  28.3538343  50.8780722  33.2010314  29.2956755  51.7423054
  49.4026608  33.8309083  52.7155956  50.2738790  33.4444536  52.6291041
  49.4625996  34.3862948  53.4933373  53.4562778  37.0046372  25.2935087
  54.3274959  36.6181825  25.2070172  53.5162165  37.5600237  26.0712504
  41.7444250  22.2390698  22.6553407  42.6156431  21.8526152  22.5688492
  41.8043638  22.7944563  23.4330824  17.3004526  32.9814465  26.6841967
  18.1716707  32.5949918  26.5977052  17.3603914  33.5368330  27.4619384
  16.1954521  38.8573974  37.5300962  17.0666702  38.4709428  37.4436047
  16.2553908  39.4127839  38.3078379  41.9217824  20.5457951  39.1221870
  42.7930005  20.1593405  39.0356955  41.9817211  21.1011816  39.8999287
  41.1987275  39.7731369  56.6087261  42.0699456  39.3866823  56.5222346
  41.2586662  40.3285234  57.3864678  46.0616808  45.3763423  19.9888196
  46.9328989  44.9898876  19.9023281  46.1216195  45.9317288  20.7665613
  22.8329392  24.7495727  23.3621532  23.7041573  24.3631181  23.2756617
  22.8928779  25.3049592  24.1398949  28.0796790  30.0612459  46.0722637
  28.9508972  29.6747912  45.9857722  28.1396178  30.6166324  46.8500054
  54.6368253  39.6400121  26.3945937  55.5080434  39.2535575  26.3081023
  54.6967641  40.1953986  27.1723354  32.6560959  22.3166111  16.8685363
  33.5273140  21.9301564  16.7820448  32.7160346  22.8719976  17.6462780
  53.0889099  30.2143866  31.8171616  53.9601280  29.8279320  31.7306702
  53.1488486  30.7697732  32.5949034  14.1769265  41.3426929  29.2736166
  15.0481446  40.9562383  29.1871251  14.2368652  41.8980794  30.0513583
  29.9182673  32.9954491  50.4195468  30.7894855  32.6089944  50.3330553
  29.9782061  33.5508356  51.1972885  43.8323236  52.1580276  33.4313085
  44.7035417  51.7715730  33.3448170  43.8922624  52.7134141  34.2090502
  34.5529357  36.5271857  77.1315560  33.6456419  36.2961110  77.3306709
  35.0500389  35.7309476  77.3189542  36.8811574  17.9443872  68.0521495
  36.2299553  18.5297953  67.6655509  37.6755936  18.4750067  68.1116533
  43.1478298  14.4368808  69.3126332  42.3707740  14.0979968  68.8681494
  43.8269778  14.4421431  68.6381297  34.5529359  13.5333979  63.8560867
  33.6456420  13.3023233  64.0552016  35.0500391  12.7371598  64.0434848
  37.4597437  22.2431486  66.7757553  36.7859136  22.5463183  67.3842511
  37.8463259  23.0460567  66.4263010  35.4293680  15.1755318  65.7172935
  34.9913110  14.4591177  65.2578573  36.1704121  15.4031433  65.1558027
  35.6588653  22.4111159  68.9904632  35.8340408  21.9399202  69.8050255
  34.9721441  23.0376925  69.2185893  39.5504907  14.0339699  65.3104993
  38.9334078  13.3086527  65.2138046  39.0821396  14.7949060  64.9672067
  40.4379006  20.5050205  70.9500478  40.6115883  19.9396628  70.1974330
  40.9307897  21.3051100  70.7679968  41.4254178  19.8216970  68.0497376
  42.1205083  20.4423663  68.2684691  41.7677328  18.9712321  68.3249754
  43.3245601  17.2716675  69.5784707  43.8496925  17.6103948  68.8534027
  43.2367954  16.3363691  69.3947842  35.5169047  19.9278722  66.9572470
  34.9443014  20.5468909  66.5042942  36.0901840  20.4778083  67.4912392
  38.7366306  20.2115872  68.0881052  39.6696980  20.1461433  68.2913928
  38.6489519  21.0472138  67.6295585  41.3654323  19.5281742  65.0485000
  41.2867955  19.1941606  65.9420758  42.1863990  20.0203510  65.0476472
  38.9358275  16.8449737  64.6694978  39.6394125  17.0499740  65.2852634
  38.2120924  17.4126499  64.9344061  40.8444972  17.2832267  66.7193438
  41.6790576  16.8513465  66.5370913  40.6829315  17.1114280  67.6470332
  40.4990864  13.7864380  68.0849777  40.4439668  13.6208651  67.1438221
  39.8736920  14.4940413  68.2411967  49.4729247  27.8001918  76.8148615
  50.1107657  27.6808665  76.1111955  49.3550090  28.7482762  76.8736567
  46.2818954  27.7529346  76.7510139  45.9437465  27.6370411  75.8630674
  47.1508722  27.3520511  76.7311146  42.1405769  29.6064822  72.7407030
  41.5770634  29.5154759  71.9723318  42.0258164  28.7864727  73.2209523
  39.6870201  31.1016014  75.5791251  40.4791493  30.7606838  75.1637550
  39.9266851  31.2110989  76.4993404  47.7205328  33.2735790  68.0521495
  47.0693308  33.8589870  67.6655509  48.5149691  33.8041985  68.1116533
  41.6460955  30.3624927  68.4508630  42.4191831  29.8153914  68.3121505
  41.9986354  31.2269176  68.6623091  43.9827233  26.5217593  66.0827080
  44.2352754  25.9999114  65.3210543  43.0451792  26.3583739  66.1853763
  49.0270516  25.5253372  73.8901823  49.8133605  25.1072795  73.5392240
  49.2909220  26.4299464  74.0583471  49.1980593  30.9626222  68.5890480
  48.5626426  31.0360848  69.3011384  48.8678000  31.5519821  67.9109559
  43.7023522  28.4245699  68.2851454  43.5859780  27.7490603  68.9532539
  43.8125782  27.9378073  67.4683608  46.0455063  27.8855846  71.9898144
  45.6813270  27.3586467  72.7011065  46.9022179  27.4954315  71.8164629
  45.6860550  22.9145746  66.9859492  45.8534952  23.7825982  67.3529963
  45.4957719  23.0773028  66.0620781  41.8948364  27.8276522  74.6862027
  40.9698861  27.6952736  74.8939719  42.1432778  28.6070741  75.1831969
  45.6649771  25.3703403  67.9706159  45.5449396  25.8160454  68.8091639
  44.9702359  25.7188721  67.4119697  43.4256663  38.1407045  71.6196290
  43.3480692  39.0914870  71.6984771  42.8218306  37.7952918  72.2771217
  51.3634837  25.8424877  68.7986493  52.2752693  26.0752263  68.6234191
  50.8544484  26.4261921  68.2361572  45.5232381  30.5625103  73.4550160
  45.9870726  30.8412806  72.6654782  45.2589179  29.6608548  73.2723250
  42.4156462  30.1096585  76.3929923  42.9857819  30.5383853  75.7547407
  43.0064574  29.8279169  77.0914109  44.4601267  26.6848256  70.2639725
  45.1625310  27.1369299  70.7313651  44.1281895  26.0432074  70.8919618
  40.1541346  25.3076387  72.5240335  39.3572510  25.4195082  73.0423831
  39.9266939  25.6463040  71.6581226  45.6995032  33.4989198  70.3401830
  45.5640706  34.3440734  70.7686678  46.2404844  33.7008476  69.5767764
  39.1524429  31.0164636  70.9129755  39.6648950  31.8107886  71.0635320
  39.8047142  30.3190927  70.8463357  40.9619314  34.1330392  72.9952508
  41.1385942  35.0548357  72.8073492  41.7576147  33.8188812  73.4246888
  37.1173346  29.3453290  71.6889326  37.9548568  29.7550299  71.4723033
  37.2951613  28.4052733  71.6589520  49.0137778  27.0128371  67.3773159
  48.4984401  27.7832976  67.6161546  48.7415086  26.3393507  68.0006220
  46.5984889  21.8578072  72.4358397  45.7426485  21.4684922  72.2564036
  47.0111841  21.9370033  71.5758183  53.9872052  29.7660726  69.3126332
  53.2101495  29.4271885  68.8681494  54.6663533  29.7713349  68.6381297
  48.8024081  24.8855463  69.2032940  48.4974217  25.2001612  70.0543083
  49.7554523  24.9636883  69.2460273  47.2470513  31.0445687  70.8525894
  46.7191874  30.3098446  70.5399131  46.7458016  31.8220363  70.6065862
  51.0368818  27.5939080  74.0196882  51.5500699  28.2269072  74.5218592
  51.6870042  26.9940275  73.6540242  42.3058828  23.7369814  67.2328391
  41.4696140  24.0744500  67.5537665  42.1663597  23.6018794  66.2955528
  45.3923113  28.8625897  63.8560867  44.4850175  28.6315150  64.0552016
  45.8894145  28.0663516  64.0434848  48.2991192  37.5723404  66.7757553
  47.6252891  37.8755101  67.3842511  48.6857014  38.3752484  66.4263010
  47.5149649  25.0688535  76.2655222  46.5972210  25.2903482  76.1076910
  47.9309792  25.1434846  75.4066930  48.2984696  26.4679951  71.3957903
  49.0456515  26.9801348  71.0865025  48.5676286  26.1464004  72.2562296
  46.5711347  28.9638492  68.3784857  45.6622566  28.6797525  68.4757327
  46.6006430  29.3837570  67.5188164  51.8030614  32.5745081  72.1476024
  51.3492941  31.7335991  72.2041215  51.1724581  33.2106480  72.4850805
  50.7463533  23.5037067  73.3776692  50.0086290  22.9914453  73.7086934
  50.9990307  23.0637449  72.5659969  37.1399517  26.6844006  72.3600059
  36.9423917  26.0913367  71.6351126  36.5846181  26.3796216  73.0775998
  45.1196241  26.5767112  74.4794652  45.1744850  25.6240949  74.4037129
  44.3087443  26.7326551  74.9635951  46.2687434  30.5047235  65.7172935
  45.8306864  29.7883094  65.2578573  47.0097875  30.7323350  65.1558027
  43.0588600  25.1944172  72.2385031  42.2456466  25.4938343  72.6450223
  43.5547595  24.7999861  72.9559513  45.2097178  35.1901929  74.1719296
  45.1673357  35.4162775  73.2427828  46.1259877  34.9565304  74.3205097
  54.3860549  28.7804432  71.7749254  54.2478448  28.9706028  70.8470443
  54.0296768  29.5423815  72.2317305  43.3262979  32.0664958  73.9681259
  44.1203578  31.5715278  73.7663833  42.6154672  31.5382821  73.6048964
  39.6345743  26.2108040  70.0441011  38.7043331  26.1492495  70.2610973
  39.7303215  25.6883992  69.2477652  39.5531292  22.7362853  72.6319253
  39.8138109  23.6508186  72.5228413  40.3748464  22.2687295  72.7815866
  46.4982407  37.7403076  68.9904632  46.6734163  37.2691120  69.8050255
  45.8115195  38.3668843  69.2185893  47.4539470  32.0175583  75.0367933
  47.1189303  31.9776353  75.9325583  46.9543416  31.3520299  74.5638344
  50.3898662  29.3631617  65.3104993  49.7727833  28.6378445  65.2138046
  49.9215150  30.1240977  64.9672067  42.1797208  23.5817041  64.4326297
  41.3026674  23.4605842  64.0688544  42.6554961  22.7903120  64.1805186
  45.3661134  35.9343332  71.6788818  44.5828656  36.4765012  71.7727042
  46.0653879  36.4517311  72.0783059  49.7587565  30.5009648  71.8961447
  48.8243843  30.6211111  71.7266151  49.9364233  29.5982115  71.6321456
  45.2592753  23.8855344  74.0494708  44.8890540  23.3326385  74.7375613
  45.7551845  23.2813478  73.4969708  51.2136347  32.6870789  69.4297633
  51.4896191  32.5727384  70.3391507  50.3440846  32.2888274  69.3909806
  48.1832577  35.8625325  70.3345495  48.7120343  35.3517779  69.7215657
  48.4460796  35.5467855  71.1991028  41.5388325  36.9140442  73.0943271
  40.8698700  37.3986569  72.6107311  41.4001194  37.1609662  74.0086649
  36.9075902  25.1758897  69.8739203  37.2029343  24.2669575  69.8206257
  36.0063937  25.1546636  69.5520205  38.6363743  22.8572994  69.9978528
  38.3076449  21.9770373  69.8153634  38.9903114  22.8020663  70.8854917
  41.7505566  23.1445964  70.3654006  42.0901639  23.6731885  69.6432614
  42.1977687  23.4826370  71.1412572  43.7373714  21.6420586  68.5647299
  44.4582076  22.0201838  68.0611015  43.1139018  22.3609462  68.6682277
  47.8804836  22.3465735  69.5005631  48.0968451  23.2290372  69.1994459
  47.3998904  21.9551948  68.7711273  51.2772760  35.8342123  70.9500478
  51.4509638  35.2688546  70.1974330  51.7701651  36.6343018  70.7679968
  43.8837337  21.1768376  71.3944835  44.0053248  20.2485022  71.5935723
  43.5939379  21.1907062  70.4823151  52.2647933  35.1508888  68.0497376
  52.9598837  35.7715580  68.2684691  52.6071083  34.3004239  68.3249754
  54.1639356  32.6008593  69.5784707  54.6890680  32.9395866  68.8534027
  54.0761708  31.6655608  69.3947842  38.3272356  34.8592117  73.9404588
  39.1530375  34.5595889  73.5603232  37.9766408  34.0899740  74.3894377
  43.2953889  34.2118585  76.0102262  42.6733898  33.5489290  75.7104490
  43.9658756  34.2379717  75.3275910  36.5280961  32.7778444  74.8993522
  35.6912869  32.3500618  74.7177523  36.5004606  32.9710887  75.8364313
  42.8567396  32.7622509  69.4860722  43.0055516  33.4457973  68.8327395
  43.6633839  32.7427599  70.0010178  40.6120029  28.7887686  70.4921791
  40.3666071  27.8850016  70.6902001  40.7815943  28.7904837  69.5501269
  39.8815676  24.5216044  67.9907953  39.1884921  24.5960399  67.3347989
  39.6367428  23.7576388  68.5129470  46.3562801  35.2570639  66.9572470
  45.7836768  35.8760826  66.5042942  46.9295595  35.8070001  67.4912392
  49.5760061  35.5407789  68.0881052  50.5090734  35.4753351  68.2913928
  49.4883274  36.3764056  67.6295585  52.2048078  34.8573660  65.0485000
  52.1261709  34.5233523  65.9420758  53.0257744  35.3495428  65.0476472
  46.7409600  26.5931452  64.2988522  47.6868704  26.4637660  64.3676940
  46.3623845  25.8546114  64.7757950  44.9252517  24.5181428  64.2343407
  44.0183972  24.2214541  64.3106121  45.2028498  24.2211246  63.3677694
  46.5414583  19.0618318  70.3887649  45.7315311  18.7165403  70.7642895
  47.2298999  18.7525862  70.9775260  43.6951301  21.3768364  64.3755387
  44.5570465  21.7023262  64.6351204  43.8801646  20.5899859  63.8628452
  37.6255460  29.3908957  74.5301590  37.6026148  29.4896644  73.5783473
  37.9356096  30.2374108  74.8518756  50.6308816  22.4096980  70.5746958
  49.7434671  22.6946631  70.3567153  51.0462805  22.2490744  69.7274235
  38.6393066  36.9904732  75.6618403  38.5047534  36.2305132  75.0956401
  38.2225129  37.7145631  75.1947192  49.7752029  32.1741655  64.6694978
  50.4787879  32.3791658  65.2852634  49.0514678  32.7418417  64.9344061
  50.6049840  27.9251516  70.7897248  50.5485041  28.3820068  69.9504880
  51.1578182  27.1642201  70.6120091  51.6838727  32.6124184  66.7193438
  52.5184331  32.1805383  66.5370913  51.5223070  32.4406198  67.6470332
  51.3384619  29.1156298  68.0849777  51.2833423  28.9500569  67.1438221
  50.7130674  29.8232330  68.2411967  44.6480744  18.6164407  67.6635096
  44.6359414  19.5606247  67.8203367  45.5404166  18.4334552  67.3694557
  54.8220988  41.8509511  66.0827080  55.0746508  41.3291032  65.3210543
  53.8845547  41.6875656  66.1853763  56.5254304  38.2437664  66.9859492
  56.6928707  39.1117900  67.3529963  56.3351473  38.4064945  66.0620781
  53.1452582  39.0661732  67.2328391  52.3089894  39.4036418  67.5537665
  53.0057352  38.9310711  66.2955528  56.2316868  44.1917815  63.8560867
  55.3243929  43.9607068  64.0552016  56.7287900  43.3955434  64.0434848
  53.0190962  38.9108959  64.4326297  52.1420429  38.7897760  64.0688544
  53.4948715  38.1195037  64.1805186  47.7469656  40.5050814  69.8739203
  48.0423097  39.5961493  69.8206257  46.8457692  40.4838554  69.5520205
  49.4757498  38.1864912  69.9978528  49.1470204  37.3062291  69.8153634
  49.8296868  38.1312581  70.8854917  54.5767468  36.9712503  68.5647299
  55.2975831  37.3493756  68.0611015  53.9532772  37.6901380  68.6682277
  50.7209431  39.8507962  67.9907953  50.0278676  39.9252317  67.3347989
  50.4761183  39.0868305  68.5129470  57.5803354  41.9223370  64.2988522
  58.5262459  41.7929578  64.3676940  57.2017599  41.1838032  64.7757950
  55.7646271  39.8473346  64.2343407  54.8577727  39.5506459  64.3106121
  56.0422252  39.5503164  63.3677694  54.5345056  36.7060281  64.3755387
  55.3964220  37.0315180  64.6351204  54.7195400  35.9191777  63.8628452
  55.4874499  33.9456324  67.6635096  55.4753169  34.8898164  67.8203367
  56.3797921  33.7626470  67.3694557  37.4597439  -0.7506391  53.5002860
  36.7859137  -0.4474694  54.1087817  37.8463261   0.0522689  53.1508317
  35.6588654  -0.5826719  55.7149939  35.8340410  -1.0538675  56.5295561
  34.9721442   0.0439048  55.9431199  49.4729249   4.8064040  63.5393921
  50.1107659   4.6870788  62.8357261  49.3550092   5.7544884  63.5981874
  46.2818955   4.7591468  63.4755446  45.9437466   4.6432533  62.5875981
  47.1508723   4.3582633  63.4556452  42.1405771   6.6126945  59.4652337
  41.5770636   6.5216882  58.6968625  42.0258166   5.7926849  59.9454830
  39.6870203   8.1078136  62.3036557  40.4791494   7.7668961  61.8882857
  39.9266853   8.2173111  63.2238711  47.7205329  10.2797913  54.7766802
  47.0693309  10.8651993  54.3900816  48.5149692  10.8104107  54.8361839
  41.6460956   7.3687050  55.1753936  42.4191832   6.8216037  55.0366812
  41.9986355   8.2331299  55.3868398  43.9827234   3.5279716  52.8072386
  44.2352755   3.0061237  52.0455849  43.0451793   3.3645861  52.9099070
  49.1980594   7.9688344  55.3135786  48.5626427   8.0422971  56.0256691
  48.8678001   8.5581943  54.6354865  43.7023523   5.4307822  55.0096761
  43.5859781   4.7552725  55.6777845  43.8125783   4.9440196  54.1928914
  46.0455064   4.8917969  58.7143450  45.6813271   4.3648590  59.4256372
  46.9022180   4.5016438  58.5409936  48.4435884   8.3824847  65.3770629
  48.1436607   9.2849886  65.2686436  48.0986944   8.1157031  66.2291782
  41.8948366   4.8338644  61.4107334  40.9698862   4.7014858  61.6185025
  42.1432779   5.6132864  61.9077276  45.6649772   2.3765526  54.6951466
  45.5449397   2.8222577  55.5336946  44.9702360   2.7250844  54.1365004
  43.4256664  15.1469168  58.3441597  43.3480694  16.0976993  58.4230077
  42.8218308  14.8015040  59.0016523  49.9704420   7.8312818  62.9145381
  49.3413283   7.9958532  62.2121449  49.5830082   8.2454427  63.6856345
  53.8493652   8.7667256  60.2689745  53.1644690   9.1466157  59.7186778
  53.9337502   9.3762582  61.0021693  45.5232382   7.5687226  60.1795466
  45.9870728   7.8474929  59.3900089  45.2589180   6.6670670  59.9968557
  42.4156463   7.1158707  63.1175230  42.9857820   7.5445976  62.4792714
  43.0064575   6.8341292  63.8159415  44.4601268   3.6910378  56.9885031
  45.1625312   4.1431422  57.4558958  44.1281897   3.0494197  57.6164925
  40.1541348   2.3138510  59.2485642  39.3572511   2.4257204  59.7669137
  39.9266940   2.6525162  58.3826532  45.6995033  10.5051321  57.0647137
  45.5640708  11.3502856  57.4931984  46.2404845  10.7070598  56.3013070
  39.1524430   8.0226759  57.6375062  39.6648951   8.8170009  57.7880626
  39.8047143   7.3253049  57.5708663  40.9619315  11.1392515  59.7197815
  41.1385943  12.0610480  59.5318799  41.7576148  10.8250934  60.1492195
  42.0850630  12.6570689  65.7208157  42.6358056  12.5287752  64.9485151
  41.2462106  12.9565578  65.3703050  37.1173347   6.3515413  58.4134632
  37.9548569   6.7612421  58.1968340  37.2951615   5.4114855  58.3834826
  49.0137779   4.0190494  54.1018465  48.4984403   4.7895098  54.3406853
  48.7415088   3.3455630  54.7251527  53.9872053   6.7722848  56.0371639
  53.2101496   6.4334008  55.5926801  54.6663534   6.7775472  55.3626604
  47.2470514   8.0507809  57.5771200  46.7191876   7.3160569  57.2644438
  46.7458017   8.8282486  57.3311169  51.0368819   4.6001202  60.7442188
  51.5500701   5.2331194  61.2463898  51.6870043   4.0002398  60.3785548
  42.3058829   0.7431936  53.9573697  41.4696141   1.0806623  54.2782972
  42.1663599   0.6080916  53.0200834  45.3923114   5.8688019  50.5806173
  44.4850176   5.6377273  50.7797322  45.8894146   5.0725639  50.7680155
  48.2991193  14.5785527  53.5002860  47.6252892  14.8817223  54.1087817
  48.6857015  15.3814607  53.1508317  48.2984698   3.4742074  58.1203209
  49.0456517   3.9863471  57.8110331  48.5676287   3.1526126  58.9807603
  46.5711348   5.9700614  55.1030164  45.6622567   5.6859647  55.2002633
  46.6006432   6.3899693  54.2433470  51.8030615   9.5807204  58.8721331
  51.3492942   8.7398114  58.9286522  51.1724582  10.2168602  59.2096111
  50.2463554  11.4183700  59.8071149  50.5386529  11.9788758  59.0883515
  50.7562175  11.7112261  60.5624308  37.1399518   3.6906128  59.0845366
  36.9423918   3.0975489  58.3596432  36.5846182   3.3858339  59.8021305
  45.1196242   3.5829235  61.2039959  45.1744852   2.6303071  61.1282435
  44.3087444   3.7388674  61.6881257  46.2687436   7.5109358  52.4418242
  45.8306866   6.7945217  51.9823879  47.0097876   7.7385473  51.8803333
  43.0588602   2.2006295  58.9630338  42.2456467   2.5000465  59.3695530
  43.5547596   1.8061983  59.6804820  45.2097180  12.1964052  60.8964602
  45.1673358  12.4224898  59.9673134  46.1259878  11.9627426  61.0450404
  54.3860550   5.7866555  58.4994561  54.2478449   5.9768151  57.5715750
  54.0296769   6.5485938  58.9562612  43.3262980   9.0727081  60.6926565
  44.1203579   8.5777401  60.4909140  42.6154673   8.5444944  60.3294271
  48.1457825  11.4545176  65.0438933  48.1994847  12.0236112  65.8116649
  47.2772606  11.6247061  64.6792970  39.6345744   3.2170162  56.7686318
  38.7043332   3.1554618  56.9856280  39.7303216   2.6946115  55.9722959
  45.9034256   9.6456103  64.3724402  45.7645342   9.2774887  65.2450340
  45.1148853  10.1603742  64.2008360  46.4982408  14.7465199  55.7149939
  46.6734164  14.2753242  56.5295561  45.8115196  15.3730965  55.9431199
  47.4539472   9.0237705  61.7613240  47.1189304   8.9838475  62.6570890
  46.9543417   8.3582421  61.2883650  50.3898663   6.3693740  52.0350300
  49.7727834   5.6440568  51.9383352  49.9215152   7.1303100  51.6917374
  41.0643494  17.8954562  62.4889799  41.3040092  18.5273086  63.1668818
  40.2212690  17.5442602  62.7755158  45.5771356  13.7033684  64.8931303
  45.5041527  14.5088656  65.4050607  45.1348749  13.9025650  64.0679324
  45.3661135  12.9405454  58.4034124  44.5828657  13.4827134  58.4972349
  46.0653880  13.4579434  58.8028366  48.0370039  13.6020518  67.0489462
  48.7498011  14.2367983  66.9765363  47.5460068  13.6984384  66.2329463
  49.7587566   7.5071771  58.6206753  48.8243845   7.6273233  58.4511458
  49.9364234   6.6044238  58.3566763  51.2136348   9.6932912  56.1542939
  51.4896192   9.5789506  57.0636814  50.3440847   9.2950396  56.1155113
  47.8490412  13.9419262  59.7975753  48.0312807  13.1240918  60.2603505
  48.6723398  14.1586955  59.3600643  48.1832578  12.8687447  57.0590802
  48.7120344  12.3579902  56.4460964  48.4460797  12.5529978  57.9236335
  38.6849671  10.8851317  64.8026135  39.2703107  10.1395005  64.9354039
  38.4874509  11.1955273  65.6862799  41.5388326  13.9202564  59.8188577
  40.8698701  14.4048692  59.3352618  41.4001196  14.1671785  60.7331956
  45.6793594  15.9546308  66.4171236  46.2311902  16.1177929  67.1820321
  46.0199788  16.5450746  65.7451261  36.9075903   2.1821019  56.5984510
  37.2029344   1.2731698  56.5451563  36.0063939   2.1608759  56.2765512
  48.8161982  13.9028283  63.4034918  48.6913121  13.1018023  62.8945863
  49.4741073  14.3974477  62.9148888  50.8796890  11.7037303  65.0314468
  49.9327226  11.5842654  64.9592795  51.2279663  10.8159801  65.1140730
  47.8843323  11.4990020  61.2318820  47.7368286  10.5706727  61.4126390
  48.7096817  11.5210110  60.7475896  51.4877445  12.3218578  62.3183693
  52.4123993  12.1161440  62.1808144  51.3192749  12.0734979  63.2273035
  51.2772761  12.8404246  57.6745785  51.4509639  12.2750668  56.9219637
  51.7701653  13.6405141  57.4925274  52.2647934  12.1571010  54.7742683
  52.9598839  12.7777703  54.9929997  52.6071084  11.3066361  55.0495061
  54.1639357   9.6070716  56.3030014  54.6890681   9.9457988  55.5779334
  54.0761710   8.6717731  56.1193148  45.8259406  13.5204789  68.4319890
  46.1346532  13.2753936  69.3042590  46.6234888  13.7251428  67.9438760
  45.8480018  15.6742699  60.6625267  45.4085008  15.1819078  61.3558123
  46.5988135  15.1315667  60.4217342  38.3272357  11.8654240  60.6649895
  39.1530377  11.5658012  60.2848538  37.9766409  11.0961862  61.1139683
  43.2953890  11.2180708  62.7347568  42.6733899  10.5551413  62.4349796
  43.9658757  11.2441840  62.0521216  36.5280962   9.7840566  61.6238828
  35.6912870   9.3562741  61.4422830  36.5004607   9.9773010  62.5609620
  42.8567397   9.7684631  56.2106029  43.0055517  10.4520096  55.5572702
  43.6633840   9.7489721  56.7255485  40.6120030   5.7949809  57.2167098
  40.3666072   4.8912139  57.4147308  40.7815944   5.7966959  56.2746576
  39.8815677   1.5278167  54.7153259  39.1884922   1.6022522  54.0593295
  39.6367429   0.7638510  55.2374776  46.3562802  12.2632762  53.6817776
  45.7836769  12.8822949  53.2288248  46.9295596  12.8132123  54.2157698
  49.5760062  12.5469912  54.8126359  50.5090735  12.4815474  55.0159234
  49.4883275  13.3826179  54.3540891  52.2048079  11.8635782  51.7730306
  52.1261710  11.5295646  52.6666064  53.0257746  12.3557550  51.7721779
  46.7409601   3.5993575  51.0233829  47.6868706   3.4699783  51.0922247
  46.3623846   2.8608236  51.5003257  37.6255461   6.3971080  61.2546897
  37.6026149   6.4958767  60.3028780  37.9356097   7.2436230  61.5764063
  38.6393068  13.9966854  62.3863709  38.5047536  13.2367255  61.8201707
  38.2225130  14.7207754  61.9192498  49.7752031   9.1803778  51.3940285
  50.4787881   9.3853780  52.0097940  49.0514679   9.7480540  51.6589368
  50.6049841   4.9313639  57.5142555  50.5485042   5.3882190  56.6750187
  51.1578183   4.1704324  57.3365397  41.7962193  14.8936171  62.5982152
  41.6794578  15.8381604  62.4960842  40.9754640  14.5909733  62.9867951
  51.6838728   9.6186307  53.4438745  52.5184332   9.1867505  53.2616219
  51.5223071   9.4468321  54.3715639  51.3384620   6.1218420  54.8095084
  51.2833424   5.9562692  53.8683528  50.7130675   6.8294453  54.9657274
  42.8216708  15.5464433  65.8138080  43.7243954  15.5788043  66.1304575
  42.5954078  14.6164884  65.8284416  44.5770310  14.2995420  62.4748159
  43.6265941  14.2997281  62.3612531  44.8802796  13.5528154  61.9584194
  60.3123003  20.1355958  63.5393921  60.9501413  20.0162705  62.8357261
  60.1943846  21.0836802  63.5981874  57.1212709  20.0883386  63.4755446
  56.7831221  19.9724451  62.5875981  57.9902478  19.6874551  63.4556452
  52.9799525  21.9418862  59.4652337  52.4164390  21.8508799  58.6968625
  52.8651920  21.1218767  59.9454830  50.5263957  23.4370054  62.3036557
  51.3185249  23.0960879  61.8882857  50.7660607  23.5465029  63.2238711
  58.5599084  25.6089830  54.7766802  57.9087064  26.1943911  54.3900816
  59.3543447  26.1396025  54.8361839  52.4854711  22.6978967  55.1753936
  53.2585587  22.1507954  55.0366812  52.8380110  23.5623217  55.3868398
  54.3239754  24.0255350  68.3820836  54.0329620  24.9300980  68.2667502
  54.9596738  24.0671877  69.0964905  55.2495960  21.4032198  64.9722195
  55.8459533  21.1788221  64.2579158  55.3070932  20.6616944  65.5747643
  54.8220989  18.8571633  52.8072386  55.0746509  18.3353155  52.0455849
  53.8845548  18.6937779  52.9099070  59.8664272  17.8607412  60.6147129
  60.6527361  17.4426835  60.2637546  60.1302976  18.7653504  60.7828778
  60.0374349  23.2980262  55.3135786  59.4020182  23.3714889  56.0256691
  59.7071755  23.8873861  54.6354865  54.5417278  20.7599739  55.0096761
  54.4253536  20.0844643  55.6777845  54.6519537  20.2732113  54.1928914
  56.8848818  20.2209887  58.7143450  56.5207026  19.6940507  59.4256372
  57.7415934  19.8308356  58.5409936  56.5254305  15.2499786  53.7104799
  56.6928708  16.1180023  54.0775270  56.3351475  15.4127068  52.7866088
  59.2829639  23.7116765  65.3770629  58.9830362  24.6141804  65.2686436
  58.9380698  23.4448948  66.2291782  52.7342120  20.1630562  61.4107334
  51.8092617  20.0306776  61.6185025  52.9826533  20.9424781  61.9077276
  56.5043526  17.7057444  54.6951466  56.3843152  18.1514494  55.5336946
  55.8096115  18.0542761  54.1365004  50.0950931  19.8063836  62.2451123
  50.2243312  20.0598314  63.1590534  49.4148382  20.3991544  61.9255778
  54.2650418  30.4761085  58.3441597  54.1874448  31.4268911  58.4230077
  53.6612062  30.1306958  59.0016523  62.2028592  18.1778917  55.5231800
  63.1146449  18.4106304  55.3479497  61.6938240  18.7615961  54.9606878
  60.8098175  23.1604735  62.9145381  60.1807037  23.3250449  62.2121449
  60.4223837  23.5746345  63.6856345  64.6887407  24.0959173  60.2689745
  64.0038445  24.4758075  59.7186778  64.7731256  24.7054500  61.0021693
  56.3626137  22.8979143  60.1795466  56.8264482  23.1766846  59.3900089
  56.0982935  21.9962588  59.9968557  53.2550218  22.4450625  63.1175230
  53.8251575  22.8737893  62.4792714  53.8458330  22.1633210  63.8159415
  55.2995023  19.0202296  56.9885031  56.0019066  19.4723339  57.4558958
  54.9675651  18.3786115  57.6164925  49.0420357  17.2785848  62.2902165
  48.2519411  17.5343377  61.8142276  49.5331604  18.0934186  62.3954206
  50.9935102  17.6430428  59.2485642  50.1966265  17.7549122  59.7669137
  50.7660694  17.9817080  58.3826532  56.8240770  24.1675131  67.1968156
  56.8885202  24.6295538  68.0326328  56.1151694  23.5372496  67.3250466
  47.3258060  17.5316339  64.7217156  47.5766098  18.4163349  64.9874732
  47.8617608  17.3520940  63.9492248  56.5388787  25.8343238  57.0647137
  56.4034462  26.6794774  57.4931984  57.0798600  26.0362516  56.3013070
  49.9918185  23.3518676  57.6375062  50.5042705  24.1461927  57.7880626
  50.6440898  22.6544967  57.5708663  51.8013069  26.4684433  59.7197815
  51.9779698  27.3902397  59.5318799  52.5969903  26.1542852  60.1492195
  51.0865426  18.5149065  69.5959978  50.9718941  17.6134322  69.8967077
  50.2309944  18.7612761  69.2444795  52.9244385  27.9862607  65.7208157
  53.4751810  27.8579670  64.9485151  52.0855861  28.2857496  65.3703050
  47.9567102  21.6807331  58.4134632  48.7942324  22.0904339  58.1968340
  48.1345369  20.7406773  58.3834826  59.8531534  19.3482411  54.1018465
  59.3378157  20.1187016  54.3406853  59.5808842  18.6747548  54.7251527
  57.4378645  14.1932112  59.1603704  56.5820241  13.8038963  58.9809342
  57.8505596  14.2724073  58.3003489  64.8265808  22.1014766  56.0371639
  64.0495251  21.7625926  55.5926801  65.5057289  22.1067389  55.3626604
  59.6417837  17.2209504  55.9278246  59.3367972  17.5355653  56.7788390
  60.5948279  17.2990923  55.9705579  58.0864269  23.3799727  57.5771200
  57.5585630  22.6452486  57.2644438  57.5851771  24.1574403  57.3311169
  52.8182996  14.0419393  59.9377812  53.3926748  13.8194575  59.2051005
  53.4053979  14.1108088  60.6906413  61.8762573  19.9293120  60.7442188
  62.3894455  20.5623112  61.2463898  62.5263797  19.3294316  60.3785548
  53.1452583  16.0723854  53.9573697  52.3089896  16.4098541  54.2782972
  53.0057353  15.9372834  53.0200834  55.1205664  10.9160642  58.6652881
  54.4670076  10.6009659  58.0409496  55.0786138  10.2936382  59.3912704
  56.2316869  21.1979937  50.5806173  55.3243931  20.9669191  50.7797322
  56.7287901  20.4017556  50.7680155  59.1384948  29.9077444  53.5002860
  58.4646646  30.2109141  54.1087817  59.5250770  30.7106525  53.1508317
  58.3543404  17.4042576  62.9900529  57.4365966  17.6257523  62.8322217
  58.7703548  17.4788886  62.1312236  59.1378452  18.8033991  58.1203209
  59.8850271  19.3155388  57.8110331  59.4070042  18.4818044  58.9807603
  57.4105102  21.2992532  55.1030164  56.5016322  21.0151565  55.2002633
  57.4400186  21.7191611  54.2433470  62.6424370  24.9099121  58.8721331
  62.1886697  24.0690031  58.9286522  62.0118336  25.5460520  59.2096111
  61.5857289  15.8391107  60.1021999  60.8480046  15.3268494  60.4332241
  61.8384063  15.3991489  59.2905275  61.0857309  26.7475618  59.8071149
  61.3780283  27.3080675  59.0883515  61.5955929  27.0404179  60.5624308
  47.9793273  19.0198046  59.0845366  47.7817672  18.4267407  58.3596432
  47.4239937  18.7150256  59.8021305  55.9589996  18.9121153  61.2039959
  56.0138606  17.9594989  61.1282435  55.1481198  19.0680592  61.6881257
  57.1081190  22.8401276  52.4418242  56.6700620  22.1237135  51.9823879
  57.8491631  23.0677390  51.8803333  53.8982356  17.5298212  58.9630338
  53.0850222  17.8292383  59.3695530  54.3941350  17.1353901  59.6804820
  56.0490934  27.5255969  60.8964602  56.0067113  27.7516816  59.9673134
  56.9653633  27.2919344  61.0450404  65.2254305  21.1158473  58.4994561
  65.0872203  21.3060069  57.5715750  64.8690524  21.8777855  58.9562612
  53.3896431  15.1016568  64.5791573  54.0295810  14.9605327  63.8814536
  52.5573962  14.8151081  64.2030175  54.1656735  24.4018998  60.6926565
  54.9597333  23.9069318  60.4909140  53.4548427  23.8736861  60.3294271
  58.9851579  26.7837094  65.0438933  59.0388602  27.3528030  65.8116649
  58.1166361  26.9538979  64.6792970  50.4739498  18.5462080  56.7686318
  49.5437086  18.4846535  56.9856280  50.5696970  18.0238033  55.9722959
  50.3925047  15.0716893  59.3564559  50.6531865  15.9862226  59.2473720
  51.2142220  14.6041335  59.5061172  51.8649973  16.4854650  66.5263384
  52.5373026  16.2772012  65.8776033  51.0379759  16.2876736  66.0868616
  56.7428011  24.9748020  64.3724402  56.6039097  24.6066805  65.2450340
  55.9542607  25.4895660  64.2008360  57.3376163  30.0757117  55.7149939
  57.5127919  29.6045160  56.5295561  56.6508951  30.7022883  55.9431199
  58.2933226  24.3529623  61.7613240  57.9583059  24.3130393  62.6570890
  57.7937172  23.6874339  61.2883650  52.2677470  19.7597253  67.2865821
  52.1297268  19.0277492  67.8877360  53.1782393  19.6706153  67.0050009
  61.2292418  21.6985657  52.0350300  60.6121588  20.9732485  51.9383352
  60.7608906  22.4595018  51.6917374  54.8959771  19.4717212  66.7749501
  55.6059389  18.8310404  66.7336119  54.8529079  19.7230107  67.6975682
  51.9037248  33.2246479  62.4889799  52.1433846  33.8565004  63.1668818
  51.0606445  32.8734519  62.7755158  53.0190964  15.9171082  51.1571604
  52.1420430  15.7959882  50.7933851  53.4948717  15.1257160  50.9050493
  44.5393104  20.7048241  61.2513111  45.2264144  20.3909971  60.6634126
  44.3841232  21.6089606  60.9780363  49.3427826  15.5938438  65.6798135
  49.2586015  14.9864107  64.9448545  48.5210532  16.0847456  65.6807631
  56.4165110  29.0325602  64.8931303  56.3435281  29.8380573  65.4050607
  55.9742503  29.2317568  64.0679324  56.2054890  28.2697372  58.4034124
  55.4222412  28.8119052  58.4972349  56.9047635  28.7871352  58.8028366
  58.8763794  28.9312436  67.0489462  59.5891766  29.5659901  66.9765363
  58.3853822  29.0276302  66.2329463  60.5981320  22.8363689  58.6206753
  59.6637599  22.9565151  58.4511458  60.7757989  21.9336155  58.3566763
  56.0986508  16.2209384  60.7740014  55.7284296  15.6680425  61.4620920
  56.5945601  15.6167518  60.2215014  53.9275707  26.6806879  67.8695032
  54.6285167  27.3143362  68.0224427  53.4570822  27.0221611  67.1090672
  62.0530103  25.0224829  56.1542939  62.3289947  24.9081424  57.0636814
  61.1834602  24.6242314  56.1155113  58.6884167  29.2711180  59.7975753
  58.8706561  28.4532836  60.2603505  59.5117153  29.4878872  59.3600643
  59.0226332  28.1979365  57.0590802  59.5514099  27.6871820  56.4460964
  59.2854552  27.8821895  57.9236335  49.5243425  26.2143234  64.8026135
  50.1096862  25.4686922  64.9354039  49.3268264  26.5247191  65.6862799
  52.3782080  29.2494482  59.8188577  51.7092456  29.7340609  59.3352618
  52.2394950  29.4963702  60.7331956  44.1161080  18.7848835  63.5230578
  44.1545179  18.2512425  64.3167696  43.6101373  18.2584040  62.9041555
  56.5187349  31.2838225  66.4171236  57.0705657  31.4469847  67.1820321
  56.8593542  31.8742663  65.7451261  51.4951842  13.6313375  67.0193121
  51.5593169  14.4928206  66.6070518  51.4318962  13.0187377  66.2865479
  47.7469657  17.5112937  56.5984510  48.0423099  16.6023615  56.5451563
  46.8457693  17.4900676  56.2765512  59.6555736  29.2320201  63.4034918
  59.5306876  28.4309941  62.8945863  60.3134827  29.7266394  62.9148888
  51.2763904  15.5868933  62.5812058  50.5550490  16.2004901  62.4419532
  52.0657160  16.1226698  62.5028704  61.7190645  27.0329221  65.0314468
  60.7720980  26.9134572  64.9592795  62.0673418  26.1451719  65.1140730
  49.4757499  15.1927034  56.7223835  49.1470205  14.3124413  56.5398941
  49.8296870  15.1374703  57.6100224  58.7237078  26.8281937  61.2318820
  58.5762040  25.8998645  61.4126390  59.5490571  26.8502028  60.7475896
  52.5899322  15.4800004  57.0899312  52.9295395  16.0085926  56.3677921
  53.0371443  15.8180410  57.8657879  62.3271200  27.6510496  62.3183693
  63.2517747  27.4453357  62.1808144  62.1586503  27.4026897  63.2273035
  54.5767469  13.9774626  55.2892605  55.2975832  14.3555879  54.7856322
  53.9532773  14.6963503  55.3927583  58.7198592  14.6819775  56.2250938
  58.9362207  15.5644413  55.9239766  58.2392659  14.2905988  55.4956580
  53.4597814  17.6405488  62.8021682  53.3142394  17.9545791  63.6945964
  52.9823017  18.2590388  62.2492581  55.3194196  14.6308036  62.8502572
  55.3055765  13.7349129  62.5134870  56.0366625  14.6378700  63.4840858
  62.1166516  28.1696163  57.6745785  62.2903393  27.6042586  56.9219637
  62.6095407  28.9697058  57.4925274  47.9343476  20.1810832  65.7409343
  47.3896944  20.9570640  65.8729618  48.8122826  20.5281637  65.5828465
  54.7231092  13.5122416  58.1190142  54.8447004  12.5839063  58.3181029
  54.4333135  13.5261102  57.2068457  63.1041688  27.4862928  54.7742683
  63.7992593  28.1069620  54.9929997  63.4464839  26.6358279  55.0495061
  48.7209498  19.3080729  68.6339500  47.9791234  19.4563364  69.2204131
  48.4002242  19.5688994  67.7706250  65.0033112  24.9362633  56.3030014
  65.5284436  25.2749906  55.5779334  64.9155464  24.0009649  56.1193148
  56.6653160  28.8496707  68.4319890  56.9740287  28.6045854  69.3042590
  57.4628642  29.0543345  67.9438760  56.6873772  31.0034617  60.6625267
  56.2478763  30.5110995  61.3558123  57.4381889  30.4607584  60.4217342
  49.1666111  27.1946157  60.6649895  49.9924131  26.8949929  60.2848538
  48.8160163  26.4253780  61.1139683  54.1347644  26.5472626  62.7347568
  53.5127654  25.8843331  62.4349796  54.8052511  26.5733758  62.0521216
  47.3674716  25.1132484  61.6238828  46.5306625  24.6854658  61.4422830
  47.3398362  25.3064927  62.5609620  53.6961151  25.0976549  56.2106029
  53.8449272  25.7812013  55.5572702  54.5027595  25.0781639  56.7255485
  51.4513784  21.1241727  57.2167098  51.2059826  20.2204057  57.4147308
  51.6209699  21.1258877  56.2746576  50.7209432  16.8570084  54.7153259
  50.0278677  16.9314439  54.0593295  50.4761184  16.0930428  55.2374776
  57.1956557  27.5924679  53.6817776  56.6230524  28.2114867  53.2288248
  57.7689351  28.1424041  54.2157698  60.4153817  27.8761830  54.8126359
  61.3484490  27.8107391  55.0159234  60.3277029  28.7118096  54.3540891
  63.0441833  27.1927700  51.7730306  62.9655465  26.8587564  52.6666064
  63.8651500  27.6849468  51.7721779  57.5803355  18.9285492  51.0233829
  58.5262460  18.7991700  51.0922247  57.2017600  18.1900154  51.5003257
  55.7646273  16.8535469  50.9588714  54.8577728  16.5568581  51.0351428
  56.0422254  16.5565287  50.0923000  46.6824213  18.1741832  61.4087761
  46.3626997  17.3207140  61.1162135  46.1357641  18.3890410  62.1645728
  50.4604120  20.8904273  65.1257267  50.6790130  21.8221381  65.1445301
  50.8729894  20.5312247  65.9112071  57.3808338  11.3972358  57.1132955
  56.5709067  11.0519443  57.4888201  58.0692755  11.0879902  57.7020567
  54.5345057  13.7122404  51.1000693  55.3964221  14.0377302  51.3596511
  54.7195401  12.9253900  50.5873759  46.5512473  21.7944744  63.3780882
  45.8575944  21.3798696  62.8650837  47.2985464  21.8365280  62.7814301
  48.4649215  21.7262997  61.2546897  48.4419904  21.8250685  60.3028780
  48.7749852  22.5728148  61.5764063  51.1236593  23.7839152  65.3693511
  52.0779847  23.7523095  65.3023443  50.9249117  23.3229776  66.1843737
  51.7135975  22.3540268  67.9364309  52.5328864  22.8484347  67.9599146
  51.9872783  21.4372236  67.9081877  61.4702572  14.7451021  57.2992265
  60.5828427  15.0300671  57.0812459  61.8856561  14.5844784  56.4519541
  49.4786822  29.3258772  62.3863709  49.3441290  28.5659173  61.8201707
  49.0618884  30.0499672  61.9192498  60.6145785  24.5095695  51.3940285
  61.3181635  24.7145698  52.0097940  59.8908434  25.0772457  51.6589368
  61.4443595  20.2605557  57.5142555  61.3878797  20.7174108  56.6750187
  61.9971938  19.4996241  57.3365397  52.6355948  30.2228089  62.5982152
  52.5188332  31.1673521  62.4960842  51.8148394  29.9201650  62.9867951
  62.5232483  24.9478225  53.4438745  63.3578086  24.5159423  53.2616219
  62.3616825  24.7760238  54.3715639  62.1778375  21.4510338  54.8095084
  62.1227178  21.2854609  53.8683528  61.5524430  22.1586371  54.9657274
  46.9670890  16.6878402  68.6356506  47.6129753  16.1777356  69.1243731
  46.7588041  17.4247084  69.2099931  55.4874500  10.9518447  54.3880402
  55.4753170  11.8960287  54.5448673  56.3797922  10.7688592  54.0939864
  53.6610462  30.8756351  65.8138080  54.5637709  30.9079961  66.1304575
  53.4347832  29.9456802  65.8284416  55.4164064  29.6287337  62.4748159
  54.4659695  29.6289199  62.3612531  55.7196550  28.8820072  61.9584194
  67.9606464  35.4175304  63.4755446  67.6224975  35.3016368  62.5875981
  68.8296232  35.0166469  63.4556452  63.8193280  37.2710780  59.4652337
  63.2558145  37.1800717  58.6968625  63.7045675  36.4510685  59.9454830
  61.3657712  38.7661972  62.3036557  62.1579003  38.4252796  61.8882857
  61.6054362  38.8756947  63.2238711  69.3992838  40.9381748  54.7766802
  68.7480818  41.5235828  54.3900816  70.1937201  41.4687943  54.8361839
  63.3248465  38.0270885  55.1753936  64.0979341  37.4799872  55.0366812
  63.6773864  38.8915134  55.3868398  66.0889715  36.7324116  64.9722195
  66.6853287  36.5080138  64.2579158  66.1464686  35.9908861  65.5747643
  65.6614743  34.1863551  52.8072386  65.9140264  33.6645072  52.0455849
  64.7239302  34.0229697  52.9099070  65.3811032  36.0891657  55.0096761
  65.2647290  35.4136560  55.6777845  65.4913292  35.6024031  54.1928914
  67.7242573  35.5501804  58.7143450  67.3600780  35.0232425  59.4256372
  68.5809689  35.1600273  58.5409936  67.3648060  30.5791704  53.7104799
  67.5322462  31.4471940  54.0775270  67.1745229  30.7418986  52.7866088
  63.5735875  35.4922480  61.4107334  62.6486371  35.3598694  61.6185025
  63.8220288  36.2716699  61.9077276  67.3437281  33.0349361  54.6951466
  67.2236906  33.4806412  55.5336946  66.6489869  33.3834679  54.1365004
  60.9344686  35.1355753  62.2451123  61.0637067  35.3890232  63.1590534
  60.2542137  35.7283461  61.9255778  65.1044173  45.8053003  58.3441597
  65.0268203  46.7560828  58.4230077  64.5005817  45.4598876  59.0016523
  67.2019891  38.2271061  60.1795466  67.6658237  38.5058764  59.3900089
  66.9376689  37.3254506  59.9968557  64.0943972  37.7742543  63.1175230
  64.6645329  38.2029811  62.4792714  64.6852084  37.4925127  63.8159415
  66.1388777  34.3494213  56.9885031  66.8412821  34.8015257  57.4558958
  65.8069406  33.7078032  57.6164925  59.8814111  32.6077766  62.2902165
  59.0913165  32.8635295  61.8142276  60.3725359  33.4226104  62.3954206
  61.8328857  32.9722345  59.2485642  61.0360020  33.0841040  59.7669137
  61.6054449  33.3108998  58.3826532  58.1651814  32.8608257  64.7217156
  58.4159853  33.7455267  64.9874732  58.7011363  32.6812858  63.9492248
  67.3782542  41.1635156  57.0647137  67.2428217  42.0086692  57.4931984
  67.9192354  41.3654434  56.3013070  60.8311939  38.6810594  57.6375062
  61.3436460  39.4753844  57.7880626  61.4834652  37.9836885  57.5708663
  62.6406824  41.7976350  59.7197815  62.8173452  42.7194315  59.5318799
  63.4363657  41.4834770  60.1492195  58.7960856  37.0099248  58.4134632
  59.6336078  37.4196257  58.1968340  58.9739124  36.0698691  58.3834826
  70.6925288  34.6774329  54.1018465  70.1771912  35.4478934  54.3406853
  70.4202597  34.0039465  54.7251527  68.2772399  29.5224030  59.1603704
  67.4213995  29.1330880  58.9809342  68.6899351  29.6015991  58.3003489
  68.9258023  38.7091645  57.5771200  68.3979385  37.9744404  57.2644438
  68.4245526  39.4866321  57.3311169  63.6576751  29.3711311  59.9377812
  64.2320503  29.1486492  59.2051005  64.2447733  29.4400005  60.6906413
  63.9846338  31.4015772  53.9573697  63.1483650  31.7390458  54.2782972
  63.8451108  31.2664752  53.0200834  65.9599418  26.2452560  58.6652881
  65.3063831  25.9301577  58.0409496  65.9179893  25.6228300  59.3912704
  67.0710623  36.5271855  50.5806173  66.1637685  36.2961108  50.7797322
  67.5681655  35.7309474  50.7680155  69.9778702  45.2369362  53.5002860
  69.3040401  45.5401059  54.1087817  70.3644524  46.0398442  53.1508317
  69.1937159  32.7334493  62.9900529  68.2759720  32.9549440  62.8322217
  69.6097302  32.8080804  62.1312236  69.9772207  34.1325909  58.1203209
  70.7244026  34.6447306  57.8110331  70.2463796  33.8109962  58.9807603
  68.2498857  36.6284450  55.1030164  67.3410076  36.3443482  55.2002633
  68.2793941  37.0483528  54.2433470  58.8187027  34.3489964  59.0845366
  58.6211427  33.7559324  58.3596432  58.2633691  34.0442174  59.8021305
  66.7983751  34.2413070  61.2039959  66.8532361  33.2886907  61.1282435
  65.9874953  34.3972509  61.6881257  67.9474945  38.1693193  52.4418242
  67.5094374  37.4529052  51.9823879  68.6885385  38.3969308  51.8803333
  64.7376111  32.8590130  58.9630338  63.9243976  33.1584301  59.3695530
  65.2335105  32.4645819  59.6804820  66.8884689  42.8547887  60.8964602
  66.8460867  43.0808733  59.9673134  67.8047387  42.6211262  61.0450404
  64.2290185  30.4308486  64.5791573  64.8689565  30.2897245  63.8814536
  63.3967716  30.1442999  64.2030175  65.0050489  39.7310916  60.6926565
  65.7991088  39.2361236  60.4909140  64.2942182  39.2028779  60.3294271
  61.3133253  33.8753998  56.7686318  60.3830841  33.8138453  56.9856280
  61.4090725  33.3529950  55.9722959  61.2318802  30.4008811  59.3564559
  61.4925619  31.3154144  59.2473720  62.0535974  29.9333253  59.5061172
  62.7043727  31.8146568  66.5263384  63.3766781  31.6063930  65.8776033
  61.8773514  31.6168654  66.0868616  68.1769917  45.4049034  55.7149939
  68.3521673  44.9337078  56.5295561  67.4902705  46.0314801  55.9431199
  69.1326981  39.6821541  61.7613240  68.7976813  39.6422311  62.6570890
  68.6330926  39.0166257  61.2883650  63.1071224  35.0889171  67.2865821
  62.9691022  34.3569409  67.8877360  64.0176148  34.9998071  67.0050009
  63.8584718  31.2462999  51.1571604  62.9814184  31.1251800  50.7933851
  64.3342471  30.4549078  50.9050493  55.3786858  36.0340159  61.2513111
  56.0657898  35.7201889  60.6634126  55.2234987  36.9381524  60.9780363
  60.1821580  30.9230356  65.6798135  60.0979769  30.3156025  64.9448545
  59.3604287  31.4139374  65.6807631  67.0448644  43.5989290  58.4034124
  66.2616166  44.1410970  58.4972349  67.7441389  44.1163269  58.8028366
  66.9380263  31.5501302  60.7740014  66.5678051  30.9972342  61.4620920
  67.4339355  30.9459436  60.2215014  69.8620087  43.5271283  57.0590802
  70.3907853  43.0163737  56.4460964  70.1248306  43.2113813  57.9236335
  63.2175835  44.5786400  59.8188577  62.5486210  45.0632527  59.3352618
  63.0788705  44.8255620  60.7331956  54.9554834  34.1140752  63.5230578
  54.9938934  33.5804343  64.3167696  54.4495127  33.5875958  62.9041555
  62.3345597  28.9605293  67.0193121  62.3986923  29.8220124  66.6070518
  62.2712717  28.3479295  66.2865479  58.5863412  32.8404855  56.5984510
  58.8816853  31.9315533  56.5451563  57.6851448  32.8192594  56.2765512
  62.1157659  30.9160851  62.5812058  61.3944245  31.5296819  62.4419532
  62.9050915  31.4518616  62.5028704  60.3151254  30.5218952  56.7223835
  59.9863960  29.6416331  56.5398941  60.6690624  30.4666621  57.6100224
  63.4293077  30.8091922  57.0899312  63.7689149  31.3377843  56.3677921
  63.8765197  31.1472328  57.8657879  65.4161224  29.3066544  55.2892605
  66.1369586  29.6847796  54.7856322  64.7926528  30.0255420  55.3927583
  69.5592347  30.0111693  56.2250938  69.7755961  30.8936330  55.9239766
  69.0786414  29.6197906  55.4956580  64.2991568  32.9697406  62.8021682
  64.1536149  33.2837709  63.6945964  63.8216772  33.5882306  62.2492581
  66.1587951  29.9599954  62.8502572  66.1449520  29.0641047  62.5134870
  66.8760379  29.9670617  63.4840858  58.7737230  35.5102750  65.7409343
  58.2290698  36.2862558  65.8729618  59.6516580  35.8573555  65.5828465
  65.5624847  28.8414334  58.1190142  65.6840758  27.9130980  58.3181029
  65.2726889  28.8553020  57.2068457  59.5603252  34.6372646  68.6339500
  58.8184988  34.7855282  69.2204131  59.2395996  34.8980912  67.7706250
  60.0059866  42.5238075  60.6649895  60.8317886  42.2241847  60.2848538
  59.6553918  41.7545698  61.1139683  64.9741399  41.8764543  62.7347568
  64.3521408  41.2135248  62.4349796  65.6446266  41.9025675  62.0521216
  58.2068471  40.4424402  61.6238828  57.3700379  40.0146576  61.4422830
  58.1792116  40.6356845  62.5609620  64.5354906  40.4268467  56.2106029
  64.6843026  41.1103931  55.5572702  65.3421349  40.4073557  56.7255485
  62.2907539  36.4533644  57.2167098  62.0453581  35.5495974  57.4147308
  62.4603453  36.4550795  56.2746576  61.5603186  32.1862002  54.7153259
  60.8672431  32.2606357  54.0593295  61.3154938  31.4222346  55.2374776
  68.0350311  42.9216597  53.6817776  67.4624278  43.5406784  53.2288248
  68.6083105  43.4715959  54.2157698  68.4197110  34.2577410  51.0233829
  69.3656215  34.1283618  51.0922247  68.0411355  33.5192072  51.5003257
  66.6040027  32.1827386  50.9588714  65.6971482  31.8860499  51.0351428
  66.8816008  31.8857204  50.0923000  57.5217967  33.5033750  61.4087761
  57.2020752  32.6499058  61.1162135  56.9751396  33.7182328  62.1645728
  61.2997875  36.2196191  65.1257267  61.5183885  37.1513299  65.1445301
  61.7123649  35.8604165  65.9112071  68.2202093  26.7264276  57.1132955
  67.4102821  26.3811361  57.4888201  68.9086510  26.4171820  57.7020567
  65.3738812  29.0414322  51.1000693  66.2357976  29.3669220  51.3596511
  65.5589156  28.2545817  50.5873759  57.3906227  37.1236661  63.3780882
  56.6969699  36.7090614  62.8650837  58.1379218  37.1657198  62.7814301
  59.3042970  37.0554915  61.2546897  59.2813658  37.1542602  60.3028780
  59.6143606  37.9020066  61.5764063  61.9630348  39.1131070  65.3693511
  62.9173601  39.0815012  65.3023443  61.7642871  38.6521694  66.1843737
  60.3180577  44.6550689  62.3863709  60.1835045  43.8951090  61.8201707
  59.9012639  45.3791589  61.9192498  57.8064644  32.0170320  68.6356506
  58.4523508  31.5069274  69.1243731  57.5981795  32.7539002  69.2099931
  66.3268255  26.2810365  54.3880402  66.3146924  27.2252204  54.5448673
  67.2191677  26.0980510  54.0939864  69.4257166  48.1696772  56.5984510
  69.7210607  47.2607451  56.5451563  68.5245202  48.1484512  56.2765512
  54.2650420   7.4823208  45.0686904  54.1874449   8.4331033  45.1475384
  53.6612063   7.1369081  45.7261830  52.9244386   4.9924729  52.4453464
  53.4751811   4.8641792  51.6730458  52.0855862   5.2919618  52.0948357
  59.1384949   6.9139567  40.2248166  58.4646648   7.2171264  40.8333124
  59.5250771   7.7168647  39.8753623  57.3376164   7.0819239  42.4395245
  57.5127920   6.6107282  43.2540868  56.6508952   7.7085006  42.6676506
  51.9037249  10.2308602  49.2135106  52.1433848  10.8627126  49.8914124
  51.0606446   9.8796642  49.5000465  56.4165111   6.0387725  51.6176610
  56.3435283   6.8442696  52.1295914  55.9742504   6.2379690  50.7924631
  52.3782082   6.2556604  46.5433884  51.7092457   6.7402732  46.0597924
  52.2394951   6.5025825  47.4577263  56.5187350   8.2900348  53.1416542
  57.0705658   8.4531969  53.9065628  56.8593544   8.8804786  52.4696567
  56.6873774   8.0096739  47.3870573  56.2478764   7.5173118  48.0803430
  57.4381891   7.4669707  47.1462649  49.1666113   4.2008280  47.3895201
  49.9924132   3.9012052  47.0093845  48.8160165   3.4315902  47.8384990
  49.4786823   6.3320894  49.1109016  49.3441291   5.5721295  48.5447014
  49.0618886   7.0561794  48.6437805  52.6355949   7.2290211  49.3227459
  52.5188333   8.1735644  49.2206149  51.8148396   6.9263773  49.7113258
  53.6610463   7.8818473  52.5383387  54.5637710   7.9142084  52.8549882
  53.4347833   6.9518924  52.5529723  55.4164065   6.6349460  49.1993466
  54.4659696   6.6351321  49.0857838  55.7196552   5.8882194  48.6829500
  67.9606465  12.4237426  50.2000753  67.6224977  12.3078491  49.3121288
  68.8296233  12.0228591  50.1801759  63.8193281  14.2772903  46.1897644
  63.2558146  14.1862840  45.4213931  63.7045676  13.4572807  46.6700136
  61.3657713  15.7724094  49.0281864  62.1579005  15.4314919  48.6128163
  61.6054363  15.8819069  49.9484017  69.3992840  17.9443870  41.5012109
  68.7480819  18.5297951  41.1146122  70.1937202  18.4750065  41.5607146
  63.3248467  15.0333008  41.8999243  64.0979343  14.4861995  41.7612119
  63.6773866  15.8977257  42.1113704  65.1633509  16.3609390  55.1066142
  64.8723375  17.2655021  54.9912809  65.7990494  16.4025917  55.8210212
  66.0889716  13.7386238  51.6967502  66.6853288  13.5142261  50.9824465
  66.1464688  12.9970984  52.2992950  65.6614745  11.1925674  39.5317693
  65.9140265  10.6707195  38.7701156  64.7239304  11.0291819  39.6344376
  65.3811033  13.0953780  41.7342068  65.2647291  12.4198683  42.4023152
  65.4913293  12.6086154  40.9174221  67.7242574  12.5563927  45.4388757
  67.3600781  12.0294548  46.1501678  68.5809690  12.1662396  45.2655242
  70.1223394  16.0470805  52.1015936  69.8224117  16.9495844  51.9931743
  69.7774454  15.7802989  52.9537089  63.5735876  12.4984602  48.1352640
  62.6486372  12.3660816  48.3430332  63.8220289  13.2778821  48.6322583
  67.3437282  10.0411484  41.4196772  67.2236907  10.4868535  42.2582253
  66.6489870  10.3896802  40.8610310  60.9344687  12.1417876  48.9696429
  61.0637068  12.3952355  49.8835841  60.2542138  12.7345584  48.6501084
  65.1044174  22.8115126  45.0686904  65.0268204  23.7622951  45.1475384
  64.5005818  22.4660998  45.7261830  67.2019892  15.2333184  46.9040773
  67.6658238  15.5120887  46.1145395  66.9376691  14.3316628  46.7213864
  64.0943973  14.7804665  49.8420536  64.6645331  15.2091934  49.2038021
  64.6852085  14.4987250  50.5404722  66.1388778  11.3556336  43.7130338
  66.8412822  11.8077380  44.1804264  65.8069407  10.7140155  44.3410231
  59.8814112   9.6139889  49.0147472  59.0913166   9.8697417  48.5387582
  60.3725360  10.4288227  49.1199512  61.8328858   9.9784468  45.9730948
  61.0360021  10.0903162  46.4914444  61.6054450  10.3171120  45.1071839
  67.6634525  16.5029171  53.9213463  67.7278958  16.9649578  54.7571635
  66.9545449  15.8726536  54.0495773  58.1651815   9.8670379  51.4462462
  58.4159854  10.7517389  51.7120038  58.7011364   9.6874981  50.6737554
  67.3782543  18.1697279  43.7892443  67.2428218  19.0148814  44.2177291
  67.9192356  18.3716556  43.0258377  60.8311940  15.6872717  44.3620368
  61.3436461  16.4815967  44.5125933  61.4834653  14.9899007  44.2953970
  62.6406825  18.8038473  46.4443122  62.8173454  19.7256438  46.2564105
  63.4363659  18.4896892  46.8737501  61.9259182  10.8503105  56.3205285
  61.8112697   9.9488362  56.6212384  61.0703699  11.0966802  55.9690101
  63.7638141  20.3216647  52.4453464  64.3145566  20.1933710  51.6730458
  62.9249617  20.6211536  52.0948357  58.7960857  14.0161371  45.1379939
  59.6336079  14.4258379  44.9213647  58.9739125  13.0760813  45.1080133
  70.6925289  11.6836452  40.8263772  70.1771913  12.4541056  41.0652159
  70.4202598  11.0101588  41.4496833  68.9258024  15.7153767  44.3016507
  68.3979386  14.9806527  43.9889744  68.4245527  16.4928443  44.0556475
  63.9846339   8.4077894  40.6819004  63.1483651   8.7452581  41.0028279
  63.8451109   8.2726874  39.7446141  67.0710625  13.5333977  37.3051480
  66.1637686  13.3023231  37.5042629  67.5681657  12.7371597  37.4925462
  69.9778703  22.2431485  40.2248166  69.3040402  22.5463181  40.8333124
  70.3644525  23.0460565  39.8753623  69.9772208  11.1388032  44.8448516
  70.7244027  11.6509429  44.5355638  70.2463797  10.8172084  45.7052909
  68.2498858  13.6346572  41.8275470  67.3410077  13.3505605  41.9247940
  68.2793942  14.0545651  40.9678777  58.8187028  11.3552086  45.8090672
  58.6211428  10.7621447  45.0841739  58.2633692  11.0504297  46.5266611
  66.7983752  11.2475193  47.9285266  66.8532362  10.2949029  47.8527742
  65.9874954  11.4034632  48.4126564  67.9474946  15.1755316  39.1663549
  67.5094376  14.4591175  38.7069186  68.6885387  15.4031431  38.6048640
  64.7376112   9.8652253  45.6875644  63.9243978  10.1646423  46.0940837
  65.2335106   9.4707941  46.4050127  66.8884690  19.8610010  47.6209909
  66.8460869  20.0870856  46.6918441  67.8047389  19.6273384  47.7695710
  65.0050491  16.7373039  47.4171872  65.7991089  16.2423359  47.2154447
  64.2942183  16.2090902  47.0539577  69.8245335  19.1191134  51.7684239
  69.8782357  19.6882070  52.5361955  68.9560116  19.2893019  51.4038277
  61.3133254  10.8816120  43.4931624  60.3830842  10.8200576  43.7101587
  61.4090726  10.3592073  42.6968266  62.7043728   8.8208690  53.2508691
  63.3766782   8.6126052  52.6021340  61.8773515   8.6230776  52.8113923
  67.5821767  17.3102061  51.0969709  67.4432852  16.9420845  51.9695647
  66.7936363  17.8249700  50.9253667  68.1769919  22.4111157  42.4395245
  68.3521674  21.9399200  43.2540868  67.4902707  23.0376923  42.6676506
  69.1326982  16.6883663  48.4858547  68.7976814  16.6484433  49.3816197
  68.6330927  16.0228379  48.0128957  63.1071226  12.0951293  54.0111128
  62.9691024  11.3631532  54.6122667  64.0176149  12.0060193  53.7295316
  65.7353526  11.8071253  53.4994807  66.4453145  11.1664445  53.4581426
  65.6922835  12.0584147  54.4220988  62.7431004  25.5600520  49.2135106
  62.9827602  26.1919044  49.8914124  61.9000200  25.2088560  49.5000465
  55.3786859  13.0402282  47.9758418  56.0657899  12.7264012  47.3879433
  55.2234988  13.9443646  47.7025669  60.1821582   7.9292478  52.4043441
  60.0979770   7.3218148  51.6693851  59.3604288   8.4201496  52.4052938
  67.2558866  21.3679642  51.6176610  67.1829037  22.1734614  52.1295914
  66.8136259  21.5671608  50.7924631  67.0448645  20.6051412  45.1279431
  66.2616167  21.1473092  45.2217656  67.7441391  21.1225392  45.5273672
  69.7157549  21.2666476  53.7734768  70.4285521  21.9013941  53.7010670
  69.2247578  21.3630342  52.9574770  64.7669463  19.0160920  54.5940339
  65.4678922  19.6497403  54.7469733  64.2964578  19.3575651  53.8335978
  69.5277923  21.6065220  46.5221060  69.7100317  20.7886876  46.9848812
  70.3510909  21.8232913  46.0845950  69.8620088  20.5333405  43.7836108
  70.3907855  20.0225860  43.1706270  70.1248308  20.2175936  44.6481641
  60.3637181  18.5497275  51.5271442  60.9490618  17.8040963  51.6599346
  60.1662019  18.8601231  52.4108106  63.2175836  21.5848522  46.5433884
  62.5486211  22.0694650  46.0597924  63.0788706  21.8317743  47.4577263
  54.9554836  11.1202875  50.2475885  54.9938935  10.5866466  51.0413003
  54.4495128  10.5938080  49.6286862  67.3581105  23.6192266  53.1416542
  67.9099413  23.7823887  53.9065628  67.6987298  24.2096703  52.4696567
  58.5863413   9.8466977  43.3229816  58.8816854   8.9377656  43.2696870
  57.6851449   9.8254717  43.0010819  62.1157660   7.9222974  49.3057365
  61.3944246   8.5358941  49.1664838  62.9050916   8.4580738  49.2274011
  69.5630834  19.1635977  47.9564127  69.4155796  18.2352685  48.1371697
  70.3884327  19.1856068  47.4721202  64.2991569   9.9759528  49.5266989
  64.1536150  10.2899831  50.4191270  63.8216773  10.5944429  48.9737887
  58.7737231  12.5164873  52.4654650  58.2290700  13.2924681  52.5974924
  59.6516581  12.8635677  52.3073771  59.5603253  11.6434769  55.3584807
  58.8184989  11.7917404  55.9449437  59.2395998  11.9043035  54.4951556
  67.5046916  21.1850747  55.1565197  67.8134042  20.9399894  56.0287896
  68.3022398  21.3897386  54.6684067  67.5267528  23.3388657  47.3870573
  67.0872518  22.8465036  48.0803430  68.2775645  22.7961625  47.1462649
  60.0059867  19.5300198  47.3895201  60.8317887  19.2303970  47.0093845
  59.6553919  18.7607820  47.8384990  64.9741400  18.8826666  49.4592875
  64.3521409  18.2197371  49.1595103  65.6446267  18.9087798  48.7766523
  58.2068472  17.4486524  48.3484135  57.3700380  17.0208699  48.1668136
  58.1792118  17.6418968  49.2854926  64.5354907  17.4330589  42.9351336
  64.6843027  18.1166054  42.2818008  65.3421351  17.4135679  43.4500791
  62.2907540  13.4595767  43.9412405  62.0453582  12.5558097  44.1392615
  62.4603455  13.4612917  42.9991883  61.5603188   9.1924125  41.4398566
  60.8672433   9.2668479  40.7838602  61.3154940   8.4284468  41.9620083
  68.0350313  19.9278720  40.4063083  67.4624280  20.5468907  39.9533555
  68.6083106  20.4778081  40.9403005  68.4197111  11.2639533  37.7479136
  69.3656216  11.1345741  37.8167554  68.0411356  10.5254194  38.2248564
  57.5217969  10.5095872  48.1333067  57.2020753   9.6561180  47.8407441
  56.9751397  10.7244450  48.8891034  61.2997876  13.2258313  51.8502574
  61.5183886  14.1575421  51.8690607  61.7123650  12.8666288  52.6357377
  57.3906229  14.1298784  50.1026189  56.6969700  13.7152737  49.5896143
  58.1379220  14.1719320  49.5059608  59.3042971  14.0617038  47.9792204
  59.2813659  14.1604725  47.0274087  59.6143608  14.9082188  48.3009370
  61.9630349  16.1193193  52.0938818  62.9173603  16.0877135  52.0268750
  61.7642873  15.6583816  52.9089044  62.5529731  14.6894309  54.6609616
  63.3722620  15.1838387  54.6844453  62.8266539  13.7726277  54.6327183
  60.3180578  21.6612812  49.1109016  60.1835046  20.9013213  48.5447014
  59.9012640  22.3853712  48.6437805  63.4749704  22.5582129  49.3227459
  63.3582088  23.5027562  49.2206149  62.6542150  22.2555691  49.7113258
  57.8064645   9.0232443  55.3601813  58.4523509   8.5131396  55.8489038
  57.5981797   9.7601124  55.9345238  64.5004218  23.2110391  52.5383387
  65.4031465  23.2434001  52.8549882  64.2741588  22.2810842  52.5529723
  66.2557820  21.9641378  49.1993466  65.3053451  21.9643239  49.0857838
  66.5590306  21.2174112  48.6829500  69.0045570  25.1962297  51.4462462
  69.2553608  26.0809307  51.7120038  69.5405118  25.0166898  50.6737554
  69.6354612  29.3453289  45.1379939  70.4729834  29.7550297  44.9213647
  69.8132879  28.4052731  45.1080133  69.6580783  26.6844004  45.8090672
  69.4605183  26.0913365  45.0841739  69.1027447  26.3796214  46.5266611
  66.2180614  28.3694199  47.9758418  66.9051654  28.0555929  47.3879433
  66.0628743  29.2735564  47.7025669  65.7948590  26.4494793  50.2475885
  65.8332690  25.9158383  51.0413003  65.2888883  25.9229998  49.6286862
  69.4257168  25.1758895  43.3229816  69.7210609  24.2669573  43.2696870
  68.5245203  25.1546634  43.0010819  69.6130986  27.8456790  52.4654650
  69.0684454  28.6216598  52.5974924  70.4910336  28.1927595  52.3073771
  70.3997008  26.9726687  55.3584807  69.6578744  27.1209322  55.9449437
  70.0789752  27.2334952  54.4951556  69.0462227  32.7778442  48.3484135
  68.2094135  32.3500616  48.1668136  69.0185872  32.9710885  49.2854926
  68.3611723  25.8387790  48.1333067  68.0414507  24.9853098  47.8407441
  67.8145151  26.0536368  48.8891034  68.2299983  29.4590701  50.1026189
  67.5363455  29.0444654  49.5896143  68.9772974  29.5011238  49.5059608
  70.1436726  29.3908955  47.9792204  70.1207414  29.4896643  47.0274087
  70.4537362  30.2374106  48.3009370  68.6458400  24.3524360  55.3601813
  69.2917264  23.8423314  55.8489038  68.4375551  25.0893042  55.9345238
  15.2024065  33.2735790  68.0521492  14.5512044  33.8589870  67.6655506
  15.9968427  33.8041985  68.1116530  21.4690789  29.7660726  69.3126329
  20.6920231  29.4271885  68.8681491  22.1482270  29.7713349  68.6381294
  12.8741850  28.8625897  63.8560864  11.9668911  28.6315150  64.0552013
  13.3712882  28.0663516  64.0434845  15.7809928  37.5723404  66.7757550
  15.1071627  37.8755101  67.3842508  16.1675750  38.3752484  66.4263007
  13.7506171  30.5047235  65.7172932  13.3125601  29.7883094  65.2578570
  14.4916612  30.7323350  65.1558024  13.9801144  37.7403076  68.9904629
  14.1552899  37.2691120  69.8050252  13.2933932  38.3668843  69.2185890
  17.8717398  29.3631617  65.3104990  17.2546569  28.6378445  65.2138043
  17.4033887  30.1240977  64.9672064  18.7591497  35.8342123  70.9500475
  18.9328374  35.2688546  70.1974327  19.2520388  36.6343018  70.7679965
  19.7466669  35.1508888  68.0497373  20.4417574  35.7715580  68.2684688
  20.0889819  34.3004239  68.3249751  21.6458092  32.6008593  69.5784704
  22.1709416  32.9395866  68.8534024  21.5580445  31.6655608  69.3947838
  13.8381538  35.2570639  66.9572467  13.2655505  35.8760826  66.5042939
  14.4114331  35.8070001  67.4912389  17.0578797  35.5407789  68.0881049
  17.9909471  35.4753351  68.2913924  16.9702010  36.3764056  67.6295582
  19.6866814  34.8573660  65.0484997  19.6080446  34.5233523  65.9420754
  20.5076481  35.3495428  65.0476469  17.2570766  32.1741655  64.6694975
  17.9606616  32.3791658  65.2852630  16.5333415  32.7418417  64.9344058
  19.1657463  32.6124184  66.7193435  20.0003067  32.1805383  66.5370910
  19.0041806  32.4406198  67.6470329  18.8203355  29.1156298  68.0849774
  18.7652159  28.9500569  67.1438218  18.1949411  29.8232330  68.2411964
  27.7941738  43.1293835  76.8148612  28.4320148  43.0100583  76.1111952
  27.6762581  44.0774679  76.8736564  24.6031445  43.0821263  76.7510136
  24.2649956  42.9662328  75.8630671  25.4721213  42.6812429  76.7311142
  20.4618260  44.9356740  72.7407027  19.8983126  44.8446677  71.9723315
  20.3470655  44.1156644  73.2209520  26.0417819  48.6027708  68.0521492
  25.3905799  49.1881788  67.6655506  26.8362182  49.1333903  68.1116530
  19.9673446  45.6916845  68.4508627  20.7404322  45.1445832  68.3121502
  20.3198845  46.5561094  68.6623088  22.3039724  41.8509511  66.0827076
  22.5565245  41.3291032  65.3210539  21.3664283  41.6875656  66.1853760
  27.3483007  40.8545289  73.8901820  28.1346096  40.4364712  73.5392237
  27.6121711  41.7591381  74.0583468  27.5193084  46.2918140  68.5890476
  26.8838917  46.3652766  69.3011381  27.1890491  46.8811738  67.9109556
  32.7491434  40.7920522  74.7934798  33.4816606  40.2219739  75.0272628
  31.9930790  40.4042123  75.2341304  22.0236013  43.7537617  68.2851451
  21.9072271  43.0782520  68.9532536  22.1338273  43.2669991  67.4683604
  24.3667554  43.2147764  71.9898141  24.0025761  42.6878385  72.7011062
  25.2234670  42.8246233  71.8164626  24.0073041  38.2437664  66.9859489
  24.1747443  39.1117900  67.3529960  23.8170210  38.4064945  66.0620778
  20.2160855  43.1568439  74.6862024  19.2911352  43.0244653  74.8939716
  20.4645269  43.9362659  75.1831966  30.1645518  39.2237183  76.3322757
  29.2562395  39.1552591  76.0381518  30.1133113  39.7009128  77.1604582
  23.9862262  40.6995321  67.9706156  23.8661887  41.1452372  68.8091636
  23.2914850  41.0480639  67.4119694  29.6847328  41.1716794  68.7986490
  30.5965184  41.4044181  68.6234188  29.1756975  41.7553839  68.2361569
  23.8444872  45.8917021  73.4550157  24.3083217  46.1704724  72.6654779
  23.5801670  44.9900465  73.2723247  22.7813758  42.0140173  70.2639722
  23.4837801  42.4661217  70.7313648  22.4494386  41.3723992  70.8919615
  18.4753837  40.6368305  72.5240332  17.6785001  40.7486999  73.0423828
  18.2479430  40.9754957  71.6581223  24.0207523  48.8281116  70.3401827
  23.8853197  49.6732652  70.7686675  24.5617335  49.0300393  69.5767761
  17.4736920  46.3456554  70.9129752  17.9861441  47.1399804  71.0635317
  18.1259633  45.6482844  70.8463354  27.3350269  42.3420289  67.3773156
  26.8196892  43.1124893  67.6161543  27.0627577  41.6685425  68.0006217
  24.9197380  37.1869990  72.4358394  24.0638976  36.7976840  72.2564033
  25.3324332  37.2661950  71.5758179  32.3084543  45.0952643  69.3126329
  31.5313986  44.7563803  68.8681491  32.9876024  45.1005267  68.6381294
  27.1236572  40.2147381  69.2032937  26.8186708  40.5293530  70.0543080
  28.0767014  40.2928801  69.2460270  25.5683004  46.3737604  70.8525891
  25.0404365  45.6390364  70.5399128  25.0670507  47.1512281  70.6065859
  29.3581309  42.9230997  74.0196879  29.8713190  43.5560989  74.5218588
  30.0082533  42.3232193  73.6540239  20.6271319  39.0661732  67.2328387
  19.7908631  39.4036418  67.5537662  20.4876088  38.9310711  66.2955524
  23.7135604  44.1917815  63.8560864  22.8062666  43.9607068  64.0552013
  24.2106636  43.3955434  64.0434845  26.6203683  52.9015322  66.7757550
  25.9465382  53.2047018  67.3842508  27.0069505  53.7044402  66.4263007
  25.8362140  40.3980453  76.2655219  24.9184701  40.6195400  76.1076907
  26.2522283  40.4726763  75.4066927  26.6197187  41.7971869  71.3957900
  27.3669006  42.3093266  71.0865022  26.8888777  41.4755921  72.2562293
  24.8923838  44.2930409  68.3784854  23.9835057  44.0089442  68.4757324
  24.9218921  44.7129488  67.5188161  30.1243105  47.9036999  72.1476021
  29.6705432  47.0627909  72.2041212  29.4937072  48.5398397  72.4850802
  29.0676025  38.8328985  73.3776689  28.3298781  38.3206371  73.7086931
  29.3202798  38.3929367  72.5659966  23.4408732  41.9059030  74.4794649
  23.4957341  40.9532866  74.4037126  22.6299934  42.0618469  74.9635948
  24.5899925  45.8339153  65.7172932  24.1519355  45.1175012  65.2578570
  25.3310366  46.0615268  65.1558024  21.3801091  40.5236090  72.2385028
  20.5668957  40.8230260  72.6450220  21.8760086  40.1291778  72.9559510
  23.5309669  50.5193847  74.1719293  23.4885848  50.7454693  73.2427825
  24.4472368  50.2857221  74.3205094  32.7073040  44.1096350  71.7749251
  32.5690939  44.2997946  70.8470440  32.3509259  44.8715733  72.2317302
  21.6475470  47.3956876  73.9681255  22.4416069  46.9007196  73.7663830
  20.9367163  46.8674739  73.6048961  17.9558234  41.5399957  70.0441008
  17.0255822  41.4784413  70.2610970  18.0515706  41.0175910  69.2477649
  17.8743783  38.0654770  72.6319250  18.1350600  38.9800103  72.5228410
  18.6960955  37.5979213  72.7815863  24.8194898  53.0694994  68.9904629
  24.9946654  52.5983037  69.8050252  24.1327686  53.6960760  69.2185890
  25.7751961  47.3467500  75.0367930  25.4401794  47.3068270  75.9325580
  25.2755907  46.6812216  74.5638341  28.7111153  44.6923535  65.3104990
  28.0940324  43.9670363  65.2138043  28.2427641  45.4532895  64.9672064
  20.5009699  38.9108959  64.4326294  19.6239165  38.7897760  64.0688541
  20.9767452  38.1195037  64.1805183  23.6873625  51.2635249  71.6788815
  22.9041147  51.8056930  71.7727039  24.3866370  51.7809229  72.0783056
  26.9970275  37.0729879  74.3223020  27.4938975  36.3199841  74.0024090
  26.2257257  37.1094195  73.7566229  28.0800056  45.8301566  71.8961444
  27.1456334  45.9503028  71.7266148  28.2576724  44.9274033  71.6321453
  23.5805244  39.2147262  74.0494705  23.2103031  38.6618302  74.7375610
  24.0764336  38.6105395  73.4969705  31.4672607  41.6718885  72.4311478
  31.9333059  42.5046877  72.3571780  31.9180108  41.2063867  73.1356736
  29.5348838  48.0162707  69.4297630  29.8108682  47.9019301  70.3391504
  28.6653337  47.6180191  69.3909803  26.5045068  51.1917243  70.3345492
  27.0332834  50.6809697  69.7215654  26.7673287  50.8759773  71.1991025
  15.2288393  40.5050814  69.8739200  15.5241834  39.5961493  69.8206254
  14.3276428  40.4838554  69.5520202  16.9576234  38.1864912  69.9978525
  16.6288940  37.3062291  69.8153631  17.3115605  38.1312581  70.8854914
  20.0718057  38.4737882  70.3654003  20.4114130  39.0023803  69.6432611
  20.5190178  38.8118288  71.1412569  22.0586205  36.9712503  68.5647296
  22.7794567  37.3493756  68.0611012  21.4351509  37.6901380  68.6682273
  26.2017327  37.6757652  69.5005628  26.4180942  38.5582290  69.1994456
  25.7211395  37.2843866  68.7711270  29.5985251  51.1634041  70.9500475
  29.7722129  50.5980463  70.1974327  30.0914142  51.9634936  70.7679965
  22.2049828  36.5060294  71.3944832  22.3265739  35.5776940  71.5935720
  21.9151870  36.5198980  70.4823148  35.4524642  43.9270464  72.5690775
  35.8955788  43.1777789  72.1709898  34.5751153  43.9180600  72.1864507
  30.5860424  50.4800805  68.0497373  31.2811328  51.1007498  68.2684688
  30.9283574  49.6296156  68.3249751  32.4851847  47.9300511  69.5784704
  33.0103171  48.2687783  68.8534024  32.3974199  46.9947526  69.3947838
  21.1779887  48.0914426  69.4860719  21.3268007  48.7749891  68.8327392
  21.9846330  48.0719516  70.0010175  18.9332520  44.1179604  70.4921788
  18.6878562  43.2141934  70.6901998  19.1028434  44.1196755  69.5501266
  18.2028167  39.8507962  67.9907950  17.5097412  39.9252317  67.3347986
  17.9579919  39.0868305  68.5129467  24.6775292  50.5862557  66.9572467
  24.1049259  51.2052744  66.5042939  25.2508086  51.1361919  67.4912389
  27.8972552  50.8699707  68.0881049  28.8303225  50.8045269  68.2913924
  27.8095765  51.7055974  67.6295582  30.5260569  50.1865577  65.0484997
  30.4474200  49.8525441  65.9420754  31.3470235  50.6787345  65.0476469
  25.0622091  41.9223370  64.2988519  26.0081195  41.7929578  64.3676937
  24.6836336  41.1838032  64.7757947  31.0343975  33.5879376  74.2615411
  30.8368796  33.2794464  75.1458743  31.6443681  34.3141015  74.3913341
  23.2465008  39.8473346  64.2343404  22.3396463  39.5506459  64.3106118
  23.5240989  39.5503164  63.3677691  24.8627074  34.3910236  70.3887646
  24.0527802  34.0457321  70.7642892  25.5511490  34.0817779  70.9775257
  26.7917622  33.4688283  72.0111942  27.3448660  33.8883736  72.6701965
  27.0287708  32.5424031  72.0534898  22.0163792  36.7060281  64.3755384
  22.8782956  37.0315180  64.6351201  22.2014137  35.9191777  63.8628449
  30.1696429  35.5788808  71.5190607  29.5895098  36.2373612  71.1368659
  29.9032362  34.7566152  71.1078024  28.6199995  34.9793865  73.7211927
  29.1199774  35.0910400  72.9126246  29.2635603  34.6754918  74.3612735
  28.9521307  37.7388898  70.5746955  28.0647162  38.0238549  70.3567150
  29.3675296  37.5782661  69.7274232  32.3035843  37.7635419  74.2901294
  33.0796233  38.2531872  74.5625911  31.5783977  38.1893473  74.7473164
  34.7408402  38.4763038  75.3475235  35.3352892  38.2358774  74.6368543
  34.8134985  37.7570169  75.9748771  28.0964520  47.5033573  64.6694975
  28.8000371  47.7083575  65.2852630  27.3727169  48.0710335  64.9344058
  28.9262331  43.2543434  70.7897245  28.8697532  43.7111985  69.9504877
  29.4790673  42.4934119  70.6120088  32.7367137  39.0433166  71.6147365
  32.4804071  38.6429802  72.4455572  32.1120005  39.7576960  71.4897504
  30.0051218  47.9416102  66.7193435  30.8396822  47.5097300  66.5370910
  29.8435561  47.7698116  67.6470329  29.6597110  44.4448215  68.0849774
  29.6045914  44.2792487  67.1438218  29.0343165  45.1524248  68.2411964
  22.9693235  33.9456324  67.6635093  22.9571905  34.8898164  67.8203363
  23.8616657  33.7626470  67.3694554  33.1433479  57.1801429  66.0827076
  33.3958999  56.6582950  65.3210539  32.2058038  57.0167574  66.1853760
  34.8466795  53.5729581  66.9859489  35.0141198  54.4409818  67.3529960
  34.6563964  53.7356863  66.0620778  31.4665073  54.3953649  67.2328387
  30.6302385  54.7328336  67.5537662  31.3269843  54.2602629  66.2955524
  34.5529359  59.5209732  63.8560864  33.6456420  59.2898986  64.0552013
  35.0500391  58.7247351  64.0434845  31.3403453  54.2400877  64.4326294
  30.4632920  54.1189677  64.0688541  31.8161206  53.4486955  64.1805183
  26.0682147  55.8342732  69.8739200  26.3635588  54.9253410  69.8206254
  25.1670183  55.8130471  69.5520202  27.7969989  53.5156830  69.9978525
  27.4682695  52.6354208  69.8153631  28.1509359  53.4604498  70.8854914
  32.8979959  52.3004421  68.5647296  33.6188322  52.6785674  68.0611012
  32.2745263  53.0193298  68.6682273  29.0421922  55.1799879  67.9907950
  28.3491167  55.2544234  67.3347986  28.7973674  54.4160223  68.5129467
  35.9015845  57.2515287  64.2988519  36.8474950  57.1221495  64.3676937
  35.5230090  56.5129949  64.7757947  34.0858762  55.1765264  64.2343404
  33.1790218  54.8798376  64.3106118  34.3634743  54.8795082  63.3677691
  32.8557547  52.0352199  64.3755384  33.7176711  52.3607097  64.6351201
  33.0407891  51.2483695  63.8628449  33.8086990  49.2748242  67.6635093
  33.7965660  50.2190082  67.8203363  34.7010412  49.0918387  67.3694554
  15.2024066  10.2797913  54.7766799  14.5512046  10.8651993  54.3900813
  15.9968429  10.8104107  54.8361836  21.4690790   6.7722848  56.0371636
  20.6920233   6.4334008  55.5926798  22.1482271   6.7775472  55.3626601
  12.8741851   5.8688019  50.5806170  11.9668913   5.6377273  50.7797319
  13.3712883   5.0725639  50.7680152  15.7809930  14.5785527  53.5002857
  15.1071629  14.8817223  54.1087814  16.1675752  15.3814607  53.1508314
  13.7506172   7.5109358  52.4418239  13.3125602   6.7945217  51.9823876
  14.4916613   7.7385473  51.8803330  13.9801145  14.7465199  55.7149936
  14.1552901  14.2753242  56.5295558  13.2933933  15.3730965  55.9431196
  17.8717400   6.3693740  52.0350297  17.2546570   5.6440568  51.9383349
  17.4033888   7.1303100  51.6917371  18.7591498  12.8404246  57.6745781
  18.9328376  12.2750668  56.9219634  19.2520389  13.6405141  57.4925271
  19.7466670  12.1571010  54.7742680  20.4417575  12.7777703  54.9929994
  20.0889821  11.3066361  55.0495058  21.6458094   9.6070716  56.3030010
  22.1709418   9.9457988  55.5779331  21.5580446   8.6717731  56.1193145
  13.8381539  12.2632762  53.6817773  13.2655506  12.8822949  53.2288245
  14.4114333  12.8132123  54.2157695  17.0578799  12.5469912  54.8126356
  17.9909472  12.4815474  55.0159231  16.9702012  13.3826179  54.3540888
  19.6866815  11.8635782  51.7730303  19.6080447  11.5295646  52.6666061
  20.5076482  12.3557550  51.7721775  17.2570767   9.1803778  51.3940281
  17.9606617   9.3853780  52.0097937  16.5333416   9.7480540  51.6589365
  19.1657465   9.6186307  53.4438742  20.0003068   9.1867505  53.2616216
  19.0041807   9.4468321  54.3715636  18.8203357   6.1218420  54.8095081
  18.7652161   5.9562692  53.8683525  18.1949412   6.8294453  54.9657271
  27.7941740  20.1355958  63.5393918  28.4320150  20.0162705  62.8357258
  27.6762583  21.0836802  63.5981870  24.6031446  20.0883386  63.4755443
  24.2649957  19.9724451  62.5875978  25.4721214  19.6874551  63.4556449
  20.4618262  21.9418862  59.4652334  19.8983127  21.8508799  58.6968622
  20.3470657  21.1218767  59.9454826  18.0082694  23.4370054  62.3036554
  18.8003985  23.0960879  61.8882854  18.2479344  23.5465029  63.2238708
  26.0417820  25.6089830  54.7766799  25.3905800  26.1943911  54.3900813
  26.8362183  26.1396025  54.8361836  19.9673447  22.6978967  55.1753933
  20.7404323  22.1507954  55.0366809  20.3198846  23.5623217  55.3868395
  22.3039725  18.8571633  52.8072383  22.5565246  18.3353155  52.0455846
  21.3664284  18.6937779  52.9099067  27.3483008  17.8607412  60.6147126
  28.1346097  17.4426835  60.2637543  27.6121712  18.7653504  60.7828775
  27.5193085  23.2980262  55.3135783  26.8838918  23.3714889  56.0256688
  27.1890492  23.8873861  54.6354862  32.7491435  17.7982645  61.5180105
  33.4816607  17.2281862  61.7517934  31.9930791  17.4104245  61.9586610
  22.0236014  20.7599739  55.0096758  21.9072272  20.0844643  55.6777842
  22.1338274  20.2732113  54.1928911  24.3667555  20.2209887  58.7143447
  24.0025762  19.6940507  59.4256369  25.2234671  19.8308356  58.5409933
  24.0073042  15.2499786  53.7104796  24.1747444  16.1180023  54.0775267
  23.8170211  15.4127068  52.7866085  26.7648375  23.7116765  65.3770626
  26.4649098  24.6141804  65.2686433  26.4199435  23.4448948  66.2291779
  20.2160857  20.1630562  61.4107331  19.2911353  20.0306776  61.6185022
  20.4645270  20.9424781  61.9077273  30.1645519  16.2299305  63.0568063
  29.2562396  16.1614714  62.7626824  30.1133115  16.7071250  63.8849889
  23.9862263  17.7057444  54.6951463  23.8661888  18.1514494  55.5336943
  23.2914851  18.0542761  54.1365001  21.7469155  30.4761085  58.3441594
  21.6693185  31.4268911  58.4230074  21.1430799  30.1306958  59.0016520
  29.6847329  18.1778917  55.5231797  30.5965185  18.4106304  55.3479494
  29.1756976  18.7615961  54.9606875  28.2916911  23.1604735  62.9145378
  27.6625774  23.3250449  62.2121446  27.9042573  23.5746345  63.6856342
  32.1706143  24.0959173  60.2689742  31.4857181  24.4758075  59.7186775
  32.2549993  24.7054500  61.0021690  29.4257075  21.7419132  66.8685085
  29.6373970  22.3850892  66.1919466  29.3786823  20.9081449  66.4007015
  23.8444873  22.8979143  60.1795463  24.3083219  23.1766846  59.3900086
  23.5801671  21.9962588  59.9968554  20.7368954  22.4450625  63.1175226
  21.3070311  22.8737893  62.4792711  21.3277066  22.1633210  63.8159412
  22.7813759  19.0202296  56.9885028  23.4837803  19.4723339  57.4558955
  22.4494388  18.3786115  57.6164921  30.5402903  24.6191088  65.0407443
  31.3620346  24.2171275  64.7590124  30.5365306  24.5159322  65.9923559
  18.4753839  17.6430428  59.2485639  17.6785002  17.7549122  59.7669134
  18.2479431  17.9817080  58.3826529  38.6308896  20.9629836  61.3892414
  37.8772604  20.3937234  61.2336419  38.7656437  20.9292501  62.3363049
  24.0207524  25.8343238  57.0647134  23.8853199  26.6794774  57.4931981
  24.5617336  26.0362516  56.3013067  17.4736921  23.3518676  57.6375059
  17.9861442  24.1461927  57.7880623  18.1259634  22.6544967  57.5708660
  19.2831806  26.4684433  59.7197812  19.4598434  27.3902397  59.5318796
  20.0788639  26.1542852  60.1492192  20.4063121  27.9862607  65.7208154
  20.9570547  27.8579670  64.9485148  19.5674597  28.2857496  65.3703047
  27.7457238  26.7369605  69.2228877  27.7275714  27.5578486  68.7309146
  28.6677158  26.6123680  69.4479018  15.4385838  21.6807331  58.4134629
  16.2761060  22.0904339  58.1968337  15.6164106  20.7406773  58.3834823
  27.3350270  19.3482411  54.1018462  26.8196894  20.1187016  54.3406850
  27.0627579  18.6747548  54.7251524  24.9197381  14.1932112  59.1603701
  24.0638978  13.8038963  58.9809339  25.3324333  14.2724073  58.3003486
  32.3084544  22.1014766  56.0371636  31.5313987  21.7625926  55.5926798
  32.9876025  22.1067389  55.3626601  27.1236573  17.2209504  55.9278243
  26.8186709  17.5355653  56.7788387  28.0767015  17.2990923  55.9705576
  25.5683005  23.3799727  57.5771197  25.0404367  22.6452486  57.2644435
  25.0670508  24.1574403  57.3311166  30.5475851  21.5748747  62.6938244
  29.8899526  22.2648009  62.7818372  31.3516250  21.9645179  63.0372230
  29.3581310  19.9293120  60.7442185  29.8713192  20.5623112  61.2463895
  30.0082534  19.3294316  60.3785545  20.6271320  16.0723854  53.9573694
  19.7908632  16.4098541  54.2782969  20.4876090  15.9372834  53.0200831
  23.7135605  21.1979937  50.5806170  22.8062667  20.9669191  50.7797319
  24.2106637  20.4017556  50.7680152  26.6203684  29.9077444  53.5002857
  25.9465383  30.2109141  54.1087814  27.0069506  30.7106525  53.1508314
  25.8362141  17.4042576  62.9900526  24.9184702  17.6257523  62.8322214
  26.2522284  17.4788886  62.1312233  26.6197189  18.8033991  58.1203206
  27.3669008  19.3155388  57.8110328  26.8888778  18.4818044  58.9807600
  24.8923839  21.2992532  55.1030160  23.9835058  21.0151565  55.2002630
  24.9218923  21.7191611  54.2433467  30.1243106  24.9099121  58.8721328
  29.6705433  24.0690031  58.9286518  29.4937073  25.5460520  59.2096108
  29.0676026  15.8391107  60.1021995  28.3298783  15.3268494  60.4332238
  29.3202799  15.3991489  59.2905272  28.5676045  26.7475618  59.8071146
  28.8599020  27.3080675  59.0883512  29.0774666  27.0404179  60.5624305
  15.4612009  19.0198046  59.0845363  15.2636409  18.4267407  58.3596429
  14.9058673  18.7150256  59.8021301  23.4408733  18.9121153  61.2039956
  23.4957343  17.9594989  61.1282432  22.6299935  19.0680592  61.6881254
  24.5899927  22.8401276  52.4418239  24.1519357  22.1237135  51.9823876
  25.3310367  23.0677390  51.8803330  21.3801093  17.5298212  58.9630335
  20.5668958  17.8292383  59.3695527  21.8760087  17.1353901  59.6804817
  23.5309671  27.5255969  60.8964599  23.4885849  27.7516816  59.9673131
  24.4472370  27.2919344  61.0450401  32.7073041  21.1158473  58.4994558
  32.5690940  21.3060069  57.5715747  32.3509260  21.8777855  58.9562609
  32.7342421  23.1835000  63.5105829  33.1678928  23.0910289  64.3588883
  33.4474002  23.1592500  62.8725845  21.6475471  24.4018998  60.6926562
  22.4416070  23.9069318  60.4909137  20.9367164  23.8736861  60.3294268
  26.4670316  26.7837094  65.0438930  26.5207338  27.3528030  65.8116646
  25.5985097  26.9538979  64.6792967  17.9558235  18.5462080  56.7686315
  17.0255823  18.4846535  56.9856277  18.0515707  18.0238033  55.9722956
  17.8743784  15.0716893  59.3564556  18.1350601  15.9862226  59.2473717
  18.6960956  14.6041335  59.5061169  33.5957971  23.2258700  66.0438715
  33.7893861  24.1304511  66.2897989  33.4958589  22.7666119  66.8777300
  24.2246747  24.9748020  64.3724399  24.0857833  24.6066805  65.2450337
  23.4361344  25.4895660  64.2008357  24.8194899  30.0757117  55.7149936
  24.9946655  29.6045160  56.5295558  24.1327687  30.7022883  55.9431196
  25.7751963  24.3529623  61.7613237  25.4401795  24.3130393  62.6570887
  25.2755908  23.6874339  61.2883647  28.7111154  21.6985657  52.0350297
  28.0940325  20.9732485  51.9383349  28.2427643  22.4595018  51.6917371
  30.3665286  26.4084566  69.6956077  30.3077832  25.7243786  69.0286660
  30.7684804  27.1503556  69.2436703  19.3855985  33.2246479  62.4889796
  19.6252583  33.8565004  63.1668814  18.5425181  32.8734519  62.7755155
  20.5009700  15.9171082  51.1571601  19.6239166  15.7959882  50.7933848
  20.9767453  15.1257160  50.9050490  30.3682693  24.3724150  67.9270057
  29.4809472  24.0350071  68.0496456  30.9381244  23.6407181  68.1638822
  23.8983847  29.0325602  64.8931300  23.8254018  29.8380573  65.4050604
  23.4561240  29.2317568  64.0679321  23.6873626  28.2697372  58.4034121
  22.9041148  28.8119052  58.4972346  24.3866371  28.7871352  58.8028363
  26.9970276  14.0792001  61.0468327  27.4938976  13.3261964  60.7269397
  26.2257258  14.1156318  60.4811536  34.8500034  19.7832367  62.6886618
  34.8389910  20.6657082  62.3180551  33.9817413  19.4303918  62.4941155
  26.3582530  28.9312436  67.0489459  27.0710502  29.5659901  66.9765360
  25.8672559  29.0276302  66.2329460  28.0800057  22.8363689  58.6206750
  27.1456336  22.9565151  58.4511455  28.2576725  21.9336155  58.3566760
  23.5805245  16.2209384  60.7740011  23.2103033  15.6680425  61.4620917
  24.0764337  15.6167518  60.2215011  31.4672608  18.6781008  59.1556784
  31.9333061  19.5108999  59.0817087  31.9180109  18.2125989  59.8602043
  29.5348839  25.0224829  56.1542936  29.8108683  24.9081424  57.0636810
  28.6653338  24.6242314  56.1155109  29.2095730  19.2351487  65.6947580
  28.5567180  19.4827394  65.0400032  29.5876109  18.4215625  65.3610057
  26.1702903  29.2711180  59.7975750  26.3525298  28.4532836  60.2603502
  26.9935889  29.4878872  59.3600640  26.5045069  28.1979365  57.0590798
  27.0332835  27.6871820  56.4460961  26.7673289  27.8821895  57.9236331
  17.0062162  26.2143234  64.8026132  17.5915598  25.4686922  64.9354036
  16.8087000  26.5247191  65.6862796  19.8600817  29.2494482  59.8188574
  19.1911192  29.7340609  59.3352614  19.7213687  29.4963702  60.7331953
  24.0006085  31.2838225  66.4171233  24.5524393  31.4469847  67.1820318
  24.3412279  31.8742663  65.7451258  15.2288394  17.5112937  56.5984507
  15.5241835  16.6023615  56.5451560  14.3276430  17.4900676  56.2765509
  27.1374473  29.2320201  63.4034915  27.0125612  28.4309941  62.8945860
  27.7953564  29.7266394  62.9148885  29.2009381  27.0329221  65.0314465
  28.2539717  26.9134572  64.9592792  29.5492154  26.1451719  65.1140726
  16.9576236  15.1927034  56.7223832  16.6288942  14.3124413  56.5398938
  17.3115606  15.1374703  57.6100221  26.2055814  26.8281937  61.2318817
  26.0580777  25.8998645  61.4126387  27.0309308  26.8502028  60.7475892
  20.0718059  15.4800004  57.0899309  20.4114131  16.0085926  56.3677918
  20.5190179  15.8180410  57.8657876  29.8089936  27.6510496  62.3183690
  30.7336484  27.4453357  62.1808141  29.6405240  27.4026897  63.2273031
  22.0586206  13.9774626  55.2892602  22.7794568  14.3555879  54.7856319
  21.4351510  14.6963503  55.3927580  26.2017329  14.6819775  56.2250934
  26.4180943  15.5644413  55.9239763  25.7211396  14.2905988  55.4956576
  29.5985252  28.1696163  57.6745781  29.7722130  27.6042586  56.9219634
  30.0914144  28.9697058  57.4925271  22.2049829  13.5122416  58.1190139
  22.3265740  12.5839063  58.3181026  21.9151871  13.5261102  57.2068454
  35.4524644  20.9332586  59.2936081  35.8955790  20.1839912  58.8955204
  34.5751154  20.9242723  58.9109813  30.5860425  27.4862928  54.7742680
  31.2811330  28.1069620  54.9929994  30.9283575  26.6358279  55.0495058
  32.4851848  24.9362633  56.3030010  33.0103172  25.2749906  55.5779331
  32.3974201  24.0009649  56.1193145  24.1471897  28.8496707  68.4319887
  24.4559023  28.6045854  69.3042587  24.9447379  29.0543345  67.9438757
  24.1692509  31.0034617  60.6625264  23.7297499  30.5110995  61.3558120
  24.9200626  30.4607584  60.4217339  16.6484848  27.1946157  60.6649892
  17.4742868  26.8949929  60.2848535  16.2978900  26.4253780  61.1139680
  21.6166381  26.5472626  62.7347565  20.9946390  25.8843331  62.4349793
  22.2871248  26.5733758  62.0521213  14.8493453  25.1132484  61.6238825
  14.0125361  24.6854658  61.4422827  14.8217098  25.3064927  62.5609617
  21.1779888  25.0976549  56.2106026  21.3268008  25.7812013  55.5572699
  21.9846331  25.0781639  56.7255482  33.7961826  24.8384945  69.1655959
  33.5046634  25.2014925  70.0019419  33.1833957  24.1251953  68.9869291
  34.9957508  22.4037825  61.6858529  35.8304400  22.8427629  61.8496089
  35.1316637  21.9276478  60.8666775  32.0449014  19.9617559  67.6336017
  32.5203136  20.1545206  66.8254868  31.1214580  20.0176745  67.3879400
  18.9332521  21.1241727  57.2167095  18.6878563  20.2204057  57.4147305
  19.1028435  21.1258877  56.2746573  18.2028168  16.8570084  54.7153256
  17.5097413  16.9314439  54.0593292  17.9579920  16.0930428  55.2374773
  24.6775293  27.5924679  53.6817773  24.1049260  28.2114867  53.2288245
  25.2508087  28.1424041  54.2157695  27.8972553  27.8761830  54.8126356
  28.8303226  27.8107391  55.0159231  27.8095766  28.7118096  54.3540888
  30.5260570  27.1927700  51.7730303  30.4474201  26.8587564  52.6666061
  31.3470237  27.6849468  51.7721775  33.2238761  20.0589439  64.9806622
  33.1915081  19.1205440  65.1666306  33.8339385  20.1373476  64.2472447
  25.0622092  18.9285492  51.0233826  26.0081197  18.7991700  51.0922244
  24.6836337  18.1900154  51.5003254  33.3733250  16.8500483  65.0264905
  32.8572298  16.0658939  64.8394834  34.2573198  16.5219199  65.1911424
  31.0343976  10.5941498  60.9860718  30.8368798  10.2856586  61.8704050
  31.6443682  11.3203137  61.1158647  39.0415311  21.1205446  64.1212659
  39.7718699  20.8590734  64.6820362  38.4322256  20.3834168  64.1614727
  37.1230608  19.2613309  64.7187110  36.3963772  19.1269274  64.1103601
  36.7077895  19.5690137  65.5243828  23.2465009  16.8535469  50.9588711
  22.3396464  16.5568581  51.0351425  23.5240990  16.5565287  50.0922997
  24.8627075  11.3972358  57.1132952  24.0527803  11.0519443  57.4888198
  25.5511492  11.0879902  57.7020564  26.7917623  10.4750405  58.7357249
  27.3448662  10.8945859  59.3947272  27.0287709   9.5486153  58.7780205
  22.0163794  13.7122404  51.1000690  22.8782958  14.0377302  51.3596508
  22.2014138  12.9253900  50.5873756  30.1696430  12.5850930  58.2435913
  29.5895099  13.2435734  57.8613966  29.9032363  11.7628275  57.8323331
  28.6199997  11.9855988  60.4457234  29.1199775  12.0972523  59.6371552
  29.2635604  11.6817041  61.0858042  15.9467952  21.7262997  61.2546894
  15.9238640  21.8250685  60.3028777  16.2568588  22.5728148  61.5764060
  28.9521308  14.7451021  57.2992261  28.0647163  15.0300671  57.0812456
  29.3675297  14.5844784  56.4519538  32.3035844  14.7697542  61.0146601
  33.0796234  15.2593994  61.2871218  31.5783978  15.1955596  61.4718470
  34.7408403  15.4825161  62.0720541  35.3352894  15.2420897  61.3613850
  34.8134987  14.7632291  62.6994078  16.9605559  29.3258772  62.3863706
  16.8260027  28.5659173  61.8201704  16.5437621  30.0499672  61.9192495
  28.0964522  24.5095695  51.3940281  28.8000372  24.7145698  52.0097937
  27.3727170  25.0772457  51.6589365  28.9262332  20.2605557  57.5142552
  28.8697533  20.7174108  56.6750184  29.4790674  19.4996241  57.3365394
  32.7367138  16.0495288  58.3392671  32.4804072  15.6491924  59.1700879
  32.1120006  16.7639082  58.2142810  37.0479476  18.7891362  60.8463963
  36.4879034  18.8584551  61.6195525  36.4422979  18.6132346  60.1263459
  20.1174685  30.2228089  62.5982149  20.0007069  31.1673521  62.4960839
  19.2967131  29.9201650  62.9867948  30.0051219  24.9478225  53.4438742
  30.8396823  24.5159423  53.2616216  29.8435562  24.7760238  54.3715636
  29.6597111  21.4510338  54.8095081  29.6045915  21.2854609  53.8683525
  29.0343167  22.1586371  54.9657271  22.9693237  10.9518447  54.3880399
  22.9571907  11.8960287  54.5448670  23.8616659  10.7688592  54.0939860
  21.1429199  30.8756351  65.8138077  22.0456445  30.9079961  66.1304572
  20.9166569  29.9456802  65.8284413  22.8982801  29.6287337  62.4748156
  21.9478432  29.6289199  62.3612528  23.2015287  28.8820072  61.9584190
  38.6335494  35.4647876  63.5393918  39.2713904  35.3454623  62.8357258
  38.5156337  36.4128720  63.5981870  35.4425200  35.4175304  63.4755443
  35.1043712  35.3016368  62.5875978  36.3114969  35.0166469  63.4556449
  31.3012016  37.2710780  59.4652334  30.7376881  37.1800717  58.6968622
  31.1864411  36.4510685  59.9454826  35.9244983  36.5710155  69.4341648
  35.9133624  36.1762954  68.5622152  36.0865623  35.8376228  70.0275420
  28.8476448  38.7661972  62.3036554  29.6397740  38.4252796  61.8882854
  29.0873098  38.8756947  63.2238708  30.8067202  38.0270885  55.1753933
  31.5798078  37.4799872  55.0366809  31.1592601  38.8915134  55.3868395
  32.6452245  39.3547267  68.3820832  32.3542111  40.2592898  68.2667499
  33.2809229  39.3963795  69.0964902  33.5708451  36.7324116  64.9722192
  34.1672024  36.5080138  64.2579155  33.6283423  35.9908861  65.5747640
  33.1433480  34.1863551  52.8072383  33.3959000  33.6645072  52.0455846
  32.2058039  34.0229697  52.9099067  38.1876763  33.1899329  60.6147126
  38.9739852  32.7718753  60.2637543  38.4515467  34.0945422  60.7828775
  43.5885190  33.1274563  61.5180105  44.3210362  32.5573780  61.7517934
  42.8324545  32.7396163  61.9586610  32.8629769  36.0891657  55.0096758
  32.7466027  35.4136560  55.6777842  32.9732028  35.6024031  54.1928911
  35.2061309  35.5501804  58.7143447  34.8419517  35.0232425  59.4256369
  36.0628425  35.1600273  58.5409933  41.1110610  26.8396137  65.9774713
  40.7793935  27.7091548  65.7535928  40.5156223  26.5232421  66.6568744
  34.8466796  30.5791704  53.7104796  35.0141199  31.4471940  54.0775267
  34.6563966  30.7418986  52.7866085  37.6042130  39.0408683  65.3770626
  37.3042853  39.9433722  65.2686433  37.2593189  38.7740866  66.2291779
  31.0554611  35.4922480  61.4107331  30.1305108  35.3598694  61.6185022
  31.3039024  36.2716699  61.9077273  41.0039273  31.5591223  63.0568063
  40.0956151  31.4906631  62.7626824  40.9526869  32.0363168  63.8849889
  28.4163422  35.1355753  62.2451120  28.5455803  35.3890232  63.1590531
  27.7360873  35.7283461  61.9255775  32.5862909  45.8053003  58.3441594
  32.5086939  46.7560828  58.4230074  31.9824553  45.4598876  59.0016520
  35.0780139  32.9780869  71.0002961  34.3013473  33.5374789  70.9905825
  35.7170702  33.4637652  71.5217831  42.8700920  29.7607661  64.8345937
  42.2275300  30.0540195  64.1885732  42.3655848  29.6460582  65.6399134
  33.3326512  35.7866322  70.5620928  34.0741196  36.3251366  70.2855751
  32.6263497  36.4132611  70.7192480  38.8081851  37.9295462  69.1593089
  39.2165207  37.4877873  68.4147722  38.0859113  37.3548090  69.4127282
  35.1612921  32.8668069  66.5326646  36.0074116  33.2907483  66.6761295
  35.1011559  32.2101693  67.2265209  39.1310666  38.4896653  62.9145378
  38.5019528  38.6542367  62.2121446  38.7436328  38.9038263  63.6856342
  43.0099898  39.4251091  60.2689742  42.3250936  39.8049992  59.7186775
  43.0943747  40.0346418  61.0021690  38.3112367  30.5272438  68.1907820
  38.0673298  31.2814498  67.6542096  38.5872297  30.9057785  69.0255067
  40.2650829  37.0711050  66.8685085  40.4767725  37.7142810  66.1919466
  40.2180578  36.2373366  66.4007015  37.8677058  29.6828871  63.7721658
  37.0061537  29.9810124  64.0638395  37.8939493  29.8999269  62.8402690
  34.6838628  38.2271061  60.1795463  35.1476973  38.5058764  59.3900086
  34.4195426  37.3254506  59.9968554  31.5762709  37.7742543  63.1175226
  32.1464066  38.2029811  62.4792711  32.1670821  37.4925127  63.8159412
  33.6207514  34.3494213  56.9885028  34.3231557  34.8015257  57.4558955
  33.2888142  33.7078032  57.6164921  32.0687875  32.9405970  71.3636238
  31.4386536  33.6222251  71.5971635  31.9623963  32.8289052  70.4189376
  27.3632848  32.6077766  62.2902162  26.5731902  32.8635295  61.8142273
  27.8544095  33.4226104  62.3954202  41.3796657  39.9483005  65.0407443
  42.2014101  39.5463193  64.7590124  41.3759060  39.8451239  65.9923559
  29.3147593  32.9722345  59.2485639  28.5178756  33.0841040  59.7669134
  29.0873185  33.3108998  58.3826529  35.1453261  39.4967049  67.1968153
  35.2097693  39.9587456  68.0326325  34.4364185  38.8664414  67.3250463
  25.6470551  32.8608257  64.7217153  25.8978589  33.7455267  64.9874729
  26.1830099  32.6812858  63.9492245  49.4702650  36.2921754  61.3892414
  48.7166359  35.7229152  61.2336419  49.6050192  36.2584418  62.3363049
  34.8601278  41.1635156  57.0647134  34.7246953  42.0086692  57.4931981
  35.4011091  41.3654434  56.3013067  28.3130676  38.6810594  57.6375059
  28.8255196  39.4753844  57.7880623  28.9653389  37.9836885  57.5708660
  30.1225560  41.7976350  59.7197812  30.2992189  42.7194315  59.5318796
  30.9182394  41.4834770  60.1492192  34.2636579  28.6584615  71.3181745
  35.0046292  29.2591768  71.2386208  34.4954502  27.9162253  70.7599788
  29.4077917  33.8440982  69.5959975  29.2931432  32.9426240  69.8967074
  28.5522435  34.0904679  69.2444792  36.4869755  41.7858723  71.1947476
  36.0433609  40.9995101  70.8768380  37.1486968  41.9737873  70.5291366
  31.2456876  43.3154524  65.7208154  31.7964301  43.1871588  64.9485148
  30.4068352  43.6149413  65.3703047  38.5850993  42.0661523  69.2228877
  38.5669468  42.8870404  68.7309146  39.5070913  41.9415598  69.4479018
  35.0424047  39.5805652  70.0652385  35.5752384  38.8193940  69.8351693
  34.5138128  39.2879304  70.8076540  38.2093742  24.6865718  65.5946027
  37.8658011  25.5767360  65.5185138  38.5772705  24.4967376  64.7315612
  26.2779593  37.0099248  58.4134629  27.1154815  37.4196257  58.1968337
  26.4557860  36.0698691  58.3834823  35.7591136  29.5224030  59.1603701
  34.9032732  29.1330880  58.9809339  36.1718087  29.6015991  58.3003486
  37.2890282  27.0570373  63.5595260  36.7855078  27.0200508  62.7463066
  37.5820889  27.9663116  63.6191917  33.5333168  27.1409103  62.5661442
  34.3986165  26.9451912  62.2067332  33.6010677  26.9119455  63.4930799
  43.1478299  37.4306684  56.0371636  42.3707742  37.0917843  55.5926798
  43.8269780  37.4359307  55.3626601  36.4076760  38.7091645  57.5771197
  35.8798121  37.9744404  57.2644435  35.9064262  39.4866321  57.3311166
  41.3869606  36.9040665  62.6938244  40.7293280  37.5939926  62.7818372
  42.1910005  37.2937097  63.0372230  31.1395487  29.3711311  59.9377809
  31.7139239  29.1486492  59.2051002  31.7266470  29.4400005  60.6906410
  40.1975064  35.2585038  60.7442185  40.7106946  35.8915030  61.2463895
  40.8476288  34.6586233  60.3785545  31.4665074  31.4015772  53.9573694
  30.6302387  31.7390458  54.2782969  31.3269844  31.2664752  53.0200831
  33.4418155  26.2452560  58.6652878  32.7882567  25.9301577  58.0409493
  33.3998629  25.6228300  59.3912701  36.6755895  32.7334493  62.9900526
  35.7578457  32.9549440  62.8322214  37.0916039  32.8080804  62.1312233
  37.4590943  34.1325909  58.1203206  38.2062762  34.6447306  57.8110328
  37.7282533  33.8109962  58.9807600  39.9069780  31.1683025  60.1021995
  39.1692537  30.6560411  60.4332238  40.1596554  30.7283407  59.2905272
  39.4069800  42.0767536  59.8071146  39.6992774  42.6372593  59.0883512
  39.9168421  42.3696097  60.5624305  26.3005764  34.3489964  59.0845363
  26.1030163  33.7559324  58.3596429  25.7452428  34.0442174  59.8021301
  34.2802487  34.2413070  61.2039956  34.3351097  33.2886907  61.1282432
  33.4693689  34.3972509  61.6881254  32.2194847  32.8590130  58.9630335
  31.4062713  33.1584301  59.3695527  32.7153841  32.4645819  59.6804817
  34.3703425  42.8547887  60.8964599  34.3279604  43.0808733  59.9673131
  35.2866124  42.6211262  61.0450401  37.8169059  33.3231954  67.7945229
  38.1718447  33.5503428  68.6539694  38.4641190  33.6550331  67.1722484
  43.5466796  36.4450390  58.4994558  43.4084694  36.6351986  57.5715747
  43.1903015  37.2069773  58.9562609  31.7108922  30.4308486  64.5791570
  32.3508301  30.2897245  63.8814533  30.8786453  30.1442999  64.2030172
  43.5736175  38.5126917  63.5105829  44.0072682  38.4202206  64.3588883
  44.2867756  38.4884418  62.8725845  32.4869226  39.7310916  60.6926562
  33.2809824  39.2361236  60.4909137  31.7760918  39.2028779  60.3294268
  37.3064070  42.1129011  65.0438930  37.3601093  42.6819948  65.8116646
  36.4378852  42.2830897  64.6792967  28.7951989  33.8753998  56.7686315
  27.8649577  33.8138453  56.9856277  28.8909461  33.3529950  55.9722956
  28.7137538  30.4008811  59.3564556  28.9744356  31.3154144  59.2473717
  29.5354711  29.9333253  59.5061169  30.1862464  31.8146568  66.5263381
  30.8585517  31.6063930  65.8776030  29.3592250  31.6168654  66.0868613
  44.4351725  38.5550618  66.0438715  44.6287615  39.4596429  66.2897989
  44.3352343  38.0958037  66.8777300  36.0888036  28.4408509  68.5429042
  35.4415951  29.1398458  68.4493518  36.8589051  28.8744653  68.9105290
  39.4966834  38.7057361  71.6179595  39.3452340  38.4767912  70.7009679
  39.4871513  39.6627962  71.6310940  36.2652170  36.2789273  66.6025862
  37.1944230  36.4300433  66.4294829  35.8443200  36.3673294  65.7474508
  35.0640502  40.3039938  64.3724399  34.9251588  39.9358722  65.2450337
  34.2755098  40.8187577  64.2008357  35.6588654  45.4049034  55.7149936
  35.8340410  44.9337078  56.5295558  34.9721442  46.0314801  55.9431196
  36.6145717  39.6821541  61.7613237  36.2795550  39.6422311  62.6570887
  36.1149663  39.0166257  61.2883647  30.5889961  35.0889171  67.2865818
  30.4509759  34.3569409  67.8877357  31.4994884  34.9998071  67.0050006
  33.2172262  34.8009130  66.7749498  33.9271880  34.1602322  66.7336116
  33.1741570  35.0522025  67.6975679  41.2059040  41.7376483  69.6956077
  41.1471587  41.0535703  69.0286660  41.6078559  42.4795473  69.2436703
  31.9301196  31.7874348  68.5945137  31.3938553  31.3365086  69.2466734
  31.3417904  31.9220257  67.8515602  30.2249739  48.5538397  62.4889796
  30.4646337  49.1856921  63.1668814  29.3818936  48.2026437  62.7755155
  41.2076448  39.7016067  67.9270057  40.3203226  39.3641989  68.0496456
  41.7774999  38.9699098  68.1638822  22.8605595  36.0340159  61.2513108
  23.5476635  35.7201889  60.6634123  22.7053723  36.9381524  60.9780359
  27.6640317  30.9230356  65.6798132  27.5798506  30.3156025  64.9448542
  26.8423023  31.4139374  65.6807628  34.7377601  44.3617520  64.8931300
  34.6647773  45.1672491  65.4050604  34.2954994  44.5609485  64.0679321
  34.5267381  43.5989290  58.4034121  33.7434903  44.1410970  58.4972346
  35.2260126  44.1163269  58.8028363  37.8364031  29.4083919  61.0468327
  38.3332730  28.6553881  60.7269397  37.0651012  29.4448236  60.4811536
  45.6893788  35.1124285  62.6886618  45.6783664  35.9949000  62.3180551
  44.8211168  34.7595835  62.4941155  37.1976285  44.2604354  67.0489459
  37.9104257  44.8951818  66.9765360  36.7066313  44.3568220  66.2329460
  38.9193811  38.1655606  58.6206750  37.9850090  38.2857069  58.4511455
  39.0970480  37.2628073  58.3566760  34.4199000  31.5501302  60.7740011
  34.0496787  30.9972342  61.4620917  34.9158092  30.9459436  60.2215011
  42.3066363  34.0072926  59.1556784  42.7726815  34.8400917  59.0817087
  42.7573863  33.5417907  59.8602043  32.2488198  42.0098797  67.8695029
  32.9497658  42.6435280  68.0224424  31.7783313  42.3513529  67.1090669
  40.2783026  26.3753513  63.1947686  39.3646105  26.6057739  63.3629893
  40.7076127  26.4591957  64.0461718  40.0489484  34.5643405  65.6947580
  39.3960934  34.8119312  65.0400032  40.4269864  33.7507543  65.3610057
  37.0096658  44.6003098  59.7975750  37.1919052  43.7824754  60.2603502
  37.8329644  44.8170790  59.3600640  37.3438823  43.5271283  57.0590798
  37.8726590  43.0163737  56.4460961  37.6067043  43.2113813  57.9236331
  36.0977057  35.3063216  72.1813617  35.4217694  35.2057345  72.8515992
  36.9204691  35.1502429  72.6449614  27.8455916  41.5435152  64.8026132
  28.4309353  40.7978840  64.9354036  27.6480755  41.8539109  65.6862796
  30.6994571  44.5786400  59.8188574  30.0304947  45.0632527  59.3352614
  30.5607441  44.8255620  60.7331953  22.4373571  34.1140752  63.5230575
  22.4757670  33.5804343  64.3167693  21.9313864  33.5875958  62.9041552
  34.8399840  46.6130143  66.4171233  35.3918148  46.7761765  67.1820318
  35.1806033  47.2034581  65.7451258  29.8164333  28.9605293  67.0193117
  29.8805660  29.8220124  66.6070515  29.7531453  28.3479295  66.2865476
  29.2916606  31.0328425  70.6666152  29.9188645  30.6505503  71.2803676
  28.4344525  30.8142627  71.0321844  39.6910714  41.4391401  72.2719887
  40.2350618  42.0521359  71.7774842  39.1097559  41.9970979  72.7886900
  26.0682148  32.8404855  56.5984507  26.3635590  31.9315533  56.5451560
  25.1670184  32.8192594  56.2765509  37.9768227  44.5612119  63.4034915
  37.8519367  43.7601858  62.8945860  38.6347318  45.0558312  62.9148885
  29.5976395  30.9160851  62.5812055  28.8762981  31.5296819  62.4419528
  30.3869651  31.4518616  62.5028701  40.0403136  42.3621139  65.0314465
  39.0933471  42.2426490  64.9592792  40.3885909  41.4743637  65.1140726
  32.4002709  28.2515278  68.8552707  32.9237111  28.4977574  69.6179016
  32.1815042  29.0835312  68.4355844  27.7969990  30.5218952  56.7223832
  27.4682696  29.6416331  56.5398938  28.1509361  30.4666621  57.6100221
  37.0449569  42.1573855  61.2318817  36.8974531  41.2290562  61.4126387
  37.8703062  42.1793946  60.7475892  30.9111813  30.8091922  57.0899309
  31.2507886  31.3377843  56.3677918  31.3583934  31.1472328  57.8657876
  40.6483691  42.9802414  62.3183690  41.5730238  42.7745275  62.1808141
  40.4798994  42.7318815  63.2273031  33.6055254  29.1928973  66.5402377
  33.2652074  28.3936786  66.9423057  32.8994260  29.4930684  65.9679211
  34.2571726  26.2778285  64.9929700  35.0797795  25.8038763  64.8708591
  34.5009789  27.0568769  65.4928387  32.8979960  29.3066544  55.2892602
  33.6188323  29.6847796  54.7856319  32.2745264  30.0255420  55.3927580
  37.0411083  30.0111693  56.2250934  37.2574698  30.8936330  55.9239763
  36.5605150  29.6197906  55.4956576  31.7810305  32.9697406  62.8021679
  31.6354885  33.2837709  63.6945961  31.3035508  33.5882306  62.2492578
  33.6406687  29.9599954  62.8502569  33.6268256  29.0641047  62.5134867
  34.3579116  29.9670617  63.4840855  35.4932818  30.3937294  64.8955696
  35.2350596  31.3154365  64.8940026  34.9617859  29.9967728  65.5856160
  40.4379007  43.4988081  57.6745781  40.6115884  42.9334504  56.9219634
  40.9307898  44.2988976  57.4925271  26.2555967  35.5102750  65.7409340
  25.7109435  36.2862558  65.8729615  27.1335317  35.8573555  65.5828462
  33.0443583  28.8414334  58.1190139  33.1659495  27.9130980  58.3181026
  32.7545626  28.8553020  57.2068454  46.2918398  36.2624504  59.2936081
  46.7349544  35.5131829  58.8955204  45.4144908  36.2534640  58.9109813
  41.4254179  42.8154845  54.7742680  42.1205084  43.4361538  54.9929994
  41.7677330  41.9650197  55.0495058  27.0421989  34.6372646  68.6339497
  26.3003725  34.7855282  69.2204128  26.7214733  34.8980912  67.7706247
  34.9865651  44.1788625  68.4319887  35.2952778  43.9337771  69.3042587
  35.7841133  44.3835263  67.9438757  35.0086263  46.3326534  60.6625264
  34.5691254  45.8402913  61.3558120  35.7594380  45.7899502  60.4217339
  27.4878602  42.5238075  60.6649892  28.3136622  42.2241847  60.2848535
  27.1372654  41.7545698  61.1139680  32.4560135  41.8764543  62.7347565
  31.8340145  41.2135248  62.4349793  33.1265002  41.9025675  62.0521213
  25.6887207  40.4424402  61.6238825  24.8519116  40.0146576  61.4422827
  25.6610853  40.6356845  62.5609617  32.5284663  30.3546331  72.3280071
  32.5772818  31.2308454  71.9457841  33.0707177  29.8123724  71.7551715
  43.0139509  40.8987455  71.6081208  42.2235052  40.8811593  71.0685708
  42.7772863  41.4375748  72.3630245  43.1337384  37.7479921  68.9213937
  43.1835389  37.5829928  69.8629460  43.0251307  36.8807180  68.5311818
  32.0173642  40.4268467  56.2106026  32.1661763  41.1103931  55.5572699
  32.8240086  40.4073557  56.7255482  40.4241146  33.7310849  70.2373244
  41.3251009  33.5917314  69.9457241  40.4989121  33.8965304  71.1771421
  34.7583951  31.1077704  69.0826430  33.8887261  31.4011270  68.8109019
  34.9943432  31.6918149  69.8033694  44.6355581  40.1676863  69.1655959
  44.3440389  40.5306843  70.0019419  44.0227712  39.4543871  68.9869291
  45.8351263  37.7329742  61.6858529  46.6698154  38.1719546  61.8496089
  45.9710392  37.2568396  60.8666775  42.8842769  35.2909477  67.6336017
  43.3596890  35.4837123  66.8254868  41.9608334  35.3468663  67.3879400
  29.7726275  36.4533644  57.2167095  29.5272317  35.5495974  57.4147305
  29.9422190  36.4550795  56.2746573  37.4622985  27.3257321  66.5991850
  37.9804929  28.0618348  66.2738339  37.1078118  27.6321314  67.4338610
  29.0421923  32.1862002  54.7153256  28.3491168  32.2606357  54.0593292
  28.7973675  31.4222346  55.2374773  41.5844438  32.1675237  65.8664322
  42.5361861  32.2673335  65.8876546  41.4147888  31.3753506  66.3762406
  39.6058817  29.2530820  66.0523723  39.0108749  29.5335833  65.3570212
  39.3208514  29.7424721  66.8240464  44.0632516  35.3881357  64.9806622
  44.0308836  34.4497358  65.1666306  44.6733139  35.4665394  64.2472447
  44.2127004  32.1792400  65.0264905  43.6966053  31.3950857  64.8394834
  45.0966953  31.8511117  65.1911424  49.8809065  36.4497364  64.1212659
  50.6112454  36.1882652  64.6820362  49.2716011  35.7126086  64.1614727
  47.9624363  34.5905226  64.7187110  47.2357526  34.4561191  64.1103601
  47.5471649  34.8982055  65.5243828  35.7854539  38.3095156  72.4834483
  36.7057548  38.4873755  72.6774529  35.7504122  37.3651201  72.3314182
  25.0036704  33.5033750  61.4087757  24.6839488  32.6499058  61.1162131
  24.4570132  33.7182328  62.1645725  28.7816611  36.2196191  65.1257264
  29.0002621  37.1513299  65.1445298  29.1942385  35.8604165  65.9112068
  35.7020829  26.7264276  57.1132952  34.8921558  26.3811361  57.4888198
  36.3905246  26.4171820  57.7020564  33.6544477  31.7929396  74.5160013
  33.5541204  32.7423753  74.4472104  33.4366019  31.4647635  73.6436083
  24.8724964  37.1236661  63.3780879  24.1788435  36.7090614  62.8650833
  25.6197955  37.1657198  62.7814298  33.5175747  35.2226535  73.3325075
  33.0342829  36.0226895  73.5388964  33.6036686  35.2334480  72.3792519
  26.7861706  37.0554915  61.2546894  26.7632395  37.1542602  60.3028777
  27.0962343  37.9020066  61.5764060  29.4449084  39.1131070  65.3693508
  30.3992338  39.0815012  65.3023440  29.2461608  38.6521694  66.1843734
  30.0348466  37.6832186  67.9364306  30.8541355  38.1776265  67.9599143
  30.3085274  36.7664154  67.9081873  39.7915063  30.0742938  57.2992261
  38.9040918  30.3592589  57.0812456  40.2069052  29.9136702  56.4519538
  43.1429599  30.0989459  61.0146601  43.9189989  30.5885912  61.2871218
  42.4177733  30.5247514  61.4718470  45.5802157  30.8117079  62.0720541
  46.1746648  30.5712815  61.3613850  45.6528741  30.0924209  62.6994078
  27.7999313  44.6550689  62.3863706  27.6653781  43.8951090  61.8201704
  27.3831375  45.3791589  61.9192495  39.7656086  35.5897474  57.5142552
  39.7091288  36.0466026  56.6750184  40.3184429  34.8288159  57.3365394
  47.8873230  34.1183279  60.8463963  47.3272788  34.1876469  61.6195525
  47.2816734  33.9424264  60.1263459  30.9568439  45.5520007  62.5982149
  30.8400823  46.4965439  62.4960839  30.1360885  45.2493568  62.9867948
  25.2883381  32.0170320  68.6356503  25.9342244  31.5069274  69.1243728
  25.0800532  32.7539002  69.2099928  37.8136773  39.0851167  74.1348644
  38.6827933  39.2591820  73.7735279  37.3343524  39.9045584  74.0124373
  33.8086991  26.2810365  54.3880399  33.7965661  27.2252204  54.5448670
  34.7010413  26.0980510  54.0939860  31.9822953  46.2048268  65.8138077
  32.8850200  46.2371879  66.1304572  31.7560323  45.2748719  65.8284413
  33.7376555  44.9579255  62.4748156  32.7872186  44.9581117  62.3612528
  34.0409041  44.2111990  61.9584190  49.4729249  50.7939793  63.5393918
  50.1107659  50.6746541  62.8357258  49.3550092  51.7420637  63.5981870
  46.2818955  50.7467221  63.4755443  45.9437466  50.6308286  62.5875978
  47.1508723  50.3458387  63.4556449  42.1405771  52.6002698  59.4652334
  41.5770636  52.5092635  58.6968622  42.0258166  51.7802602  59.9454826
  39.6870203  54.0953889  62.3036554  40.4791494  53.7544714  61.8882854
  39.9266853  54.2048864  63.2238708  47.7205329  56.2673666  54.7766799
  47.0693309  56.8527746  54.3900813  48.5149692  56.7979860  54.8361836
  41.6460956  53.3562803  55.1753933  42.4191832  52.8091790  55.0366809
  41.9986355  54.2207052  55.3868395  44.4102206  52.0616033  64.9722192
  45.0065778  51.8372056  64.2579155  44.4677177  51.3200779  65.5747640
  43.9827234  49.5155469  52.8072383  44.2352755  48.9936990  52.0455846
  43.0451793  49.3521614  52.9099067  49.0270517  48.5191247  60.6147126
  49.8133606  48.1010670  60.2637543  49.2909221  49.4237339  60.7828775
  49.1980594  53.9564097  55.3135783  48.5626427  54.0298724  56.0256688
  48.8678001  54.5457696  54.6354862  54.4278944  48.4566480  61.5180105
  55.1604116  47.8865697  61.7517934  53.6718300  48.0688081  61.9586610
  43.7023523  51.4183575  55.0096758  43.5859781  50.7428478  55.6777842
  43.8125783  50.9315949  54.1928911  46.0455064  50.8793722  58.7143447
  45.6813271  50.3524343  59.4256369  46.9022180  50.4892191  58.5409933
  51.9504365  42.1688054  65.9774713  51.6187689  43.0383465  65.7535928
  51.3549978  41.8524338  66.6568744  45.6860551  45.9083622  53.7104796
  45.8534953  46.7763858  54.0775267  45.4957720  46.0710903  52.7866085
  41.8948366  50.8214397  61.4107331  40.9698862  50.6890611  61.6185022
  42.1432779  51.6008617  61.9077273  51.8433028  46.8883141  63.0568063
  50.9349905  46.8198549  62.7626824  51.7920624  47.3655086  63.8849889
  45.6649772  48.3641279  54.6951463  45.5449397  48.8098330  55.5336943
  44.9702360  48.7126597  54.1365001  39.2557177  50.4647671  62.2451120
  39.3849558  50.7182150  63.1590531  38.5754628  51.0575379  61.9255775
  43.4256664  61.1344921  58.3441594  43.3480694  62.0852746  58.4230074
  42.8218308  60.7890793  59.0016520  53.7094674  45.0899579  64.8345937
  53.0669055  45.3832112  64.1885732  53.2049603  44.9752499  65.6399134
  51.3634838  48.8362752  55.5231797  52.2752694  49.0690139  55.3479494
  50.8544485  49.4199796  54.9606875  48.7070813  45.0120788  63.7721658
  47.8455292  45.3102042  64.0638395  48.7333247  45.2291187  62.8402690
  45.5232382  53.5562979  60.1795463  45.9870728  53.8350682  59.3900086
  45.2589180  52.6546423  59.9968554  42.4156463  53.1034460  63.1175226
  42.9857820  53.5321729  62.4792711  43.0064575  52.8217045  63.8159412
  44.4601268  49.6786131  56.9885028  45.1625312  50.1307175  57.4558955
  44.1281897  49.0369950  57.6164921  38.2026602  47.9369684  62.2902162
  37.4125656  48.1927212  61.8142273  38.6937850  48.7518022  62.3954202
  40.1541348  48.3014263  59.2485639  39.3572511  48.4132957  59.7669134
  39.9266940  48.6400915  58.3826529  36.4864305  48.1900174  64.7217153
  36.7372344  49.0747184  64.9874729  37.0223854  48.0104776  63.9492245
  45.6995033  56.4927074  57.0647134  45.5640708  57.3378610  57.4931981
  46.2404845  56.6946351  56.3013067  39.1524430  54.0102512  57.6375059
  39.6648951  54.8045762  57.7880623  39.8047143  53.3128802  57.5708660
  40.9619315  57.1268268  59.7197812  41.1385943  58.0486233  59.5318796
  41.7576148  56.8126687  60.1492192  49.0487496  40.0157636  65.5946027
  48.7051766  40.9059277  65.5185138  49.4166459  39.8259293  64.7315612
  37.1173347  52.3391166  58.4134629  37.9548569  52.7488174  58.1968337
  37.2951615  51.3990608  58.3834823  49.0137779  50.0066247  54.1018462
  48.4984403  50.7770851  54.3406850  48.7415088  49.3331383  54.7251524
  46.5984890  44.8515948  59.1603701  45.7426487  44.4622798  58.9809339
  47.0111842  44.9307908  58.3003486  48.1284037  42.3862291  63.5595260
  47.6248832  42.3492426  62.7463066  48.4214644  43.2955034  63.6191917
  44.3726923  42.4701021  62.5661442  45.2379919  42.2743829  62.2067332
  44.4404432  42.2411372  63.4930799  53.9872053  52.7598601  56.0371636
  53.2101496  52.4209761  55.5926798  54.6663534  52.7651225  55.3626601
  48.8024082  47.8793339  55.9278243  48.4974218  48.1939488  56.7788387
  49.7554524  47.9574759  55.9705576  47.2470514  54.0383562  57.5771197
  46.7191876  53.3036322  57.2644435  46.7458017  54.8158239  57.3311166
  41.9789242  44.7003228  59.9377809  42.5532994  44.4778410  59.2051002
  42.5660224  44.7691923  60.6906410  51.0368819  50.5876955  60.7442185
  51.5500701  51.2206947  61.2463895  51.6870043  49.9878151  60.3785545
  42.3058829  46.7307689  53.9573694  41.4696141  47.0682376  54.2782969
  42.1663599  46.5956669  53.0200831  44.2811909  41.5744477  58.6652878
  43.6276322  41.2593495  58.0409493  44.2392384  40.9520218  59.3912701
  45.3923114  51.8563772  50.5806170  44.4850176  51.6253026  50.7797319
  45.8894146  51.0601392  50.7680152  48.2991193  60.5661280  53.5002857
  47.6252892  60.8692976  54.1087814  48.6857015  61.3690360  53.1508314
  47.5149650  48.0626411  62.9900526  46.5972211  48.2841358  62.8322214
  47.9309793  48.1372721  62.1312233  48.2984698  49.4617827  58.1203206
  49.0456517  49.9739224  57.8110328  48.5676287  49.1401879  58.9807600
  46.5711348  51.9576367  55.1030160  45.6622567  51.6735400  55.2002630
  46.6006432  52.3775446  54.2433467  51.8030615  55.5682957  58.8721328
  51.3492942  54.7273867  58.9286518  51.1724582  56.2044355  59.2096108
  50.7463535  46.4974943  60.1021995  50.0086292  45.9852329  60.4332238
  50.9990308  46.0575324  59.2905272  50.8475162  39.2751195  60.6963765
  51.1534039  38.4148558  60.4089680  51.5727767  39.8668815  60.4962759
  37.1399518  49.6781881  59.0845363  36.9423918  49.0851242  58.3596429
  36.5846182  49.3734092  59.8021301  45.1196242  49.5704988  61.2039956
  45.1744852  48.6178824  61.1282432  44.3087444  49.7264427  61.6881254
  46.2687436  53.4985111  52.4418239  45.8306866  52.7820970  51.9823876
  47.0097876  53.7261226  51.8803330  43.0588602  48.1882048  58.9630335
  42.2456467  48.4876218  59.3695527  43.5547596  47.7937736  59.6804817
  45.2097180  58.1839805  60.8964599  45.1673358  58.4100651  59.9673131
  46.1259878  57.9503179  61.0450401  54.3860550  51.7742308  58.4994558
  54.2478449  51.9643904  57.5715747  54.0296769  52.5361691  58.9562609
  42.5502676  45.7600403  64.5791570  43.1902056  45.6189162  63.8814533
  41.7180207  45.4734917  64.2030172  43.3262980  55.0602834  60.6926562
  44.1203579  54.5653154  60.4909137  42.6154673  54.5320697  60.3294268
  39.6345744  49.2045915  56.7686315  38.7043332  49.1430371  56.9856277
  39.7303216  48.6821868  55.9722956  39.5531293  45.7300728  59.3564556
  39.8138110  46.6446061  59.2473717  40.3748465  45.2625171  59.5061169
  41.0256218  47.1438485  66.5263381  41.6979272  46.9355847  65.8776030
  40.1986005  46.9460571  66.0868613  46.4982408  60.7340952  55.7149936
  46.6734164  60.2628995  56.5295558  45.8115196  61.3606718  55.9431196
  47.4539472  55.0113458  61.7613237  47.1189304  54.9714228  62.6570887
  46.9543417  54.3458174  61.2883647  41.4283716  50.4181088  67.2865818
  41.2903513  49.6861327  67.8877357  42.3388639  50.3289988  67.0050006
  50.3898663  52.3569493  52.0350297  49.7727834  51.6316321  51.9383349
  49.9215152  53.1178853  51.6917371  42.7694950  47.1166266  68.5945137
  42.2332307  46.6657004  69.2466734  42.1811659  47.2512174  67.8515602
  42.1797209  46.5754917  51.1571601  41.3026675  46.4543718  50.7933848
  42.6554962  45.7840995  50.9050490  33.6999349  51.3632077  61.2513108
  34.3870389  51.0493807  60.6634123  33.5447478  52.2673441  60.9780359
  38.5034071  46.2522273  65.6798132  38.4192260  45.6447943  64.9448542
  37.6816778  46.7431292  65.6807628  45.3661135  58.9281207  58.4034121
  44.5828657  59.4702887  58.4972346  46.0653880  59.4455187  58.8028363
  48.6757785  44.7375837  61.0468327  49.1726485  43.9845799  60.7269397
  47.9044767  44.7740153  60.4811536  49.7587566  53.4947524  58.6206750
  48.8243845  53.6148986  58.4511455  49.9364234  52.5919991  58.3566760
  45.2592754  46.8793220  60.7740011  44.8890542  46.3264260  61.4620917
  45.7551846  46.2751353  60.2215011  53.1460117  49.3364843  59.1556784
  53.6120569  50.1692835  59.0817087  53.5967618  48.8709825  59.8602043
  51.2136348  55.6808665  56.1542936  51.4896192  55.5665259  57.0636810
  50.3440847  55.2826149  56.1155109  51.1176780  41.7045430  63.1947686
  50.2039860  41.9349657  63.3629893  51.5469882  41.7883874  64.0461718
  48.1832578  58.8563201  57.0590798  48.7120344  58.3455655  56.4460961
  48.4460797  58.5405731  57.9236331  41.5388326  59.9078317  59.8188574
  40.8698701  60.3924445  59.3352614  41.4001196  60.1547538  60.7331953
  33.2767325  49.4432670  63.5230575  33.3151425  48.9096261  64.3167693
  32.7707618  48.9167876  62.9041552  40.6558088  44.2897211  67.0193117
  40.7199414  45.1512041  66.6070515  40.5925208  43.6771212  66.2865476
  36.9075903  48.1696772  56.5984507  37.2029344  47.2607451  56.5451560
  36.0063939  48.1484512  56.2765509  40.4370150  46.2452769  62.5812055
  39.7156736  46.8588736  62.4419528  41.2263406  46.7810534  62.5028701
  43.2396463  43.5807195  68.8552707  43.7630865  43.8269492  69.6179016
  43.0208797  44.4127230  68.4355844  38.6363745  45.8510870  56.7223832
  38.3076451  44.9708249  56.5398938  38.9903115  45.7958539  57.6100221
  41.7505568  46.1383840  57.0899309  42.0901640  46.6669761  56.3677918
  42.1977688  46.4764246  57.8657876  44.4449009  44.5220890  66.5402377
  44.1045829  43.7228703  66.9423057  43.7388015  44.8222601  65.9679211
  45.0965480  41.6070203  64.9929700  45.9191550  41.1330681  64.8708591
  45.3403544  42.3860687  65.4928387  43.7373715  44.6358461  55.2892602
  44.4582077  45.0139714  54.7856319  43.1139019  45.3547338  55.3927580
  47.8804838  45.3403610  56.2250934  48.0968452  46.2228248  55.9239763
  47.3998905  44.9489824  55.4956576  42.6204059  48.2989323  62.8021679
  42.4748640  48.6129626  63.6945961  42.1429263  48.9174224  62.2492578
  44.4800442  45.2891871  62.8502569  44.4662011  44.3932965  62.5134867
  45.1972870  45.2962535  63.4840855  46.3326573  45.7229212  64.8955696
  46.0744351  46.6446282  64.8940026  45.8011613  45.3259646  65.5856160
  51.2772761  58.8279999  57.6745781  51.4509639  58.2626421  56.9219634
  51.7701653  59.6280894  57.4925271  37.0949721  50.8394668  65.7409340
  36.5503189  51.6154476  65.8729615  37.9729071  51.1865472  65.5828462
  43.8837338  44.1706252  58.1190139  44.0053249  43.2422898  58.3181026
  43.5939380  44.1844938  57.2068454  46.7528528  41.8561162  61.2556859
  46.7750225  41.9200495  60.3008838  47.1696587  41.0165671  61.4497365
  57.1312153  51.5916422  59.2936081  57.5743299  50.8423747  58.8955204
  56.2538663  51.5826558  58.9109813  52.2647934  58.1446763  54.7742680
  52.9598839  58.7653456  54.9929994  52.6071084  57.2942114  55.0495058
  37.8815743  49.9664564  68.6339497  37.1397479  50.1147199  69.2204128
  37.5608487  50.2272830  67.7706247  54.1639357  55.5946469  56.3030010
  54.6890681  55.9333741  55.5779331  54.0761710  54.6593484  56.1193145
  38.3272357  57.8529993  60.6649892  39.1530377  57.5533765  60.2848535
  37.9766409  57.0837615  61.1139680  43.2953890  57.2056461  62.7347565
  42.6733899  56.5427166  62.4349793  43.9658757  57.2317593  62.0521213
  36.5280962  55.7716319  61.6238825  35.6912870  55.3438494  61.4422827
  36.5004607  55.9648763  62.5609617  42.8567397  55.7560384  56.2106026
  43.0055517  56.4395849  55.5572699  43.6633840  55.7365474  56.7255482
  40.6120030  51.7825562  57.2167095  40.3666072  50.8787892  57.4147305
  40.7815944  51.7842712  56.2746573  48.3016740  42.6549238  66.5991850
  48.8198684  43.3910265  66.2738339  47.9471873  42.9613232  67.4338610
  39.8815677  47.5153920  54.7153256  39.1884922  47.5898275  54.0593292
  39.6367429  46.7514263  55.2374773  48.5529334  39.0749521  62.1192747
  48.8331088  38.4072710  62.7453174  49.3379941  39.2678617  61.6067411
  46.3562802  58.2508515  53.6817773  45.7836769  58.8698702  53.2288245
  46.9295596  58.8007877  54.2157695  50.4452572  44.5822738  66.0523723
  49.8502504  44.8627751  65.3570212  50.1602268  45.0716639  66.8240464
  49.5760062  58.5345665  54.8126356  50.5090735  58.4691227  55.0159231
  49.4883275  59.3701932  54.3540888  52.2048079  57.8511535  51.7730303
  52.1261710  57.5171399  52.6666061  53.0257746  58.3433303  51.7721775
  46.7409601  49.5869328  51.0233826  47.6868706  49.4575536  51.0922244
  46.3623846  48.8483989  51.5003254  52.7131485  41.2525334  60.9860718
  52.5156307  40.9440422  61.8704050  53.3231191  41.9786973  61.1158647
  44.9252518  47.5119304  50.9588711  44.0183973  47.2152417  51.0351425
  45.2028499  47.2149122  50.0922997  35.8430458  48.8325667  61.4087757
  35.5233243  47.9790976  61.1162131  35.2963887  49.0474246  62.1645725
  39.6210366  51.5488108  65.1257264  39.8396376  52.4805216  65.1445298
  40.0336140  51.1896083  65.9112068  46.5414584  42.0556194  57.1132952
  45.7315312  41.7103279  57.4888198  47.2299001  41.7463737  57.7020564
  48.4705132  41.1334240  58.7357249  49.0236171  41.5529694  59.3947272
  48.7075218  40.2069989  58.7780205  43.6951303  44.3706239  51.1000690
  44.5570467  44.6961137  51.3596508  43.8801647  43.5837735  50.5873756
  35.7118718  52.4528579  63.3780879  35.0182190  52.0382532  62.8650833
  36.4591709  52.4949115  62.7814298  51.8483939  43.2434766  58.2435913
  51.2682608  43.9019570  57.8613966  51.5819872  42.4212110  57.8323331
  50.2987506  42.6439823  60.4457234  50.7987284  42.7556358  59.6371552
  50.9423113  42.3400876  61.0858042  37.6255461  52.3846833  61.2546894
  37.6026149  52.4834520  60.3028777  37.9356097  53.2311983  61.5764060
  40.2842839  54.4422988  65.3693508  41.2386092  54.4106930  65.3023440
  40.0855362  53.9813611  66.1843734  50.6308817  45.4034856  57.2992261
  49.7434672  45.6884507  57.0812456  51.0462806  45.2428619  56.4519538
  53.9823353  45.4281377  61.0146601  54.7583743  45.9177829  61.2871218
  53.2571487  45.8539431  61.4718470  56.4195912  46.1408996  62.0720541
  57.0140403  45.9004732  61.3613850  56.4922496  45.4216127  62.6994078
  38.6393068  59.9842607  62.3863706  38.5047536  59.2243008  61.8201704
  38.2225130  60.7083507  61.9192495  49.7752031  55.1679531  51.3940281
  50.4787881  55.3729533  52.0097937  49.0514679  55.7356293  51.6589365
  50.6049841  50.9189392  57.5142552  50.5485042  51.3757943  56.6750184
  51.1578183  50.1580077  57.3365394  54.4154647  46.7079124  58.3392671
  54.1591581  46.3075759  59.1700879  53.7907515  47.4222918  58.2142810
  51.6838728  55.6062060  53.4438742  52.5184332  55.1743258  53.2616216
  51.5223071  55.4344074  54.3715636  51.3384620  52.1094173  54.8095081
  51.2833424  51.9438445  53.8683525  50.7130675  52.8170206  54.9657271
  36.1277135  47.3462238  68.6356503  36.7735999  46.8361192  69.1243728
  35.9194286  48.0830919  69.2099928  44.6480746  41.6102282  54.3880399
  44.6359416  42.5544122  54.5448670  45.5404168  41.4272428  54.0939860
  48.4632865  38.2045059  58.6426336  47.6965261  37.6503546  58.7883018
  48.8743570  38.2766928  59.5040488  54.8220989  64.8447386  52.8072383
  55.0746509  64.3228908  52.0455846  53.8845548  64.6813532  52.9099067
  56.5254305  61.2375539  53.7104796  56.6928708  62.1055776  54.0775267
  56.3351475  61.4002821  52.7866085  53.1452583  62.0599607  53.9573694
  52.3089896  62.3974294  54.2782969  53.0057353  61.9248587  53.0200831
  56.2316869  67.1855690  50.5806170  55.3243931  66.9544944  50.7797319
  56.7287901  66.3893309  50.7680152  53.0190964  61.9046835  51.1571601
  52.1420430  61.7835635  50.7933848  53.4948717  61.1132913  50.9050490
  47.7469657  63.4988690  56.5984507  48.0423099  62.5899368  56.5451560
  46.8457693  63.4776429  56.2765509  49.4757499  61.1802788  56.7223832
  49.1470205  60.3000166  56.5398938  49.8296870  61.1250456  57.6100221
  54.5767469  59.9650379  55.2892602  55.2975832  60.3431632  54.7856319
  53.9532773  60.6839256  55.3927580  50.7209432  62.8445837  54.7153256
  50.0278677  62.9190192  54.0593292  50.4761184  62.0806181  55.2374773
  57.5803355  64.9161245  51.0233826  58.5262460  64.7867453  51.0922244
  57.2017600  64.1775907  51.5003254  55.7646273  62.8411222  50.9588711
  54.8577728  62.5444334  51.0351425  56.0422254  62.5441040  50.0922997
  54.5345057  59.6998157  51.1000690  55.3964221  60.0253055  51.3596508
  54.7195401  58.9129653  50.5873756  55.4874500  56.9394200  54.3880399
  55.4753170  57.8836040  54.5448670  56.3797922  56.7564345  54.0939860
  27.7941741  -2.8581919  50.2639225  28.4320151  -2.9775172  49.5602565
  27.6762584  -1.9101075  50.3227177  24.6031447  -2.9054491  50.2000750
  24.2649959  -3.0213427  49.3121284  25.4721215  -3.3063326  50.1801756
  20.4618263  -1.0519015  46.1897641  19.8983128  -1.1429078  45.4213928
  20.3470658  -1.8719110  46.6700133  18.0082695   0.4432177  49.0281861
  18.8003987   0.1023001  48.6128160  18.2479345   0.5527152  49.9484014
  26.0417822   2.6151953  41.5012105  25.3905801   3.2006033  41.1146119
  26.8362184   3.1458148  41.5607143  19.9673449  -0.2958910  41.8999240
  20.7404325  -0.8429923  41.7612116  20.3198848   0.5685339  42.1113701
  27.5193087   0.3042385  42.0381090  26.8838920   0.3777011  42.7501994
  27.1890493   0.8935984  41.3600169  22.0236015  -2.2338138  41.7342065
  21.9072273  -2.9093235  42.4023149  22.1338275  -2.7205764  40.9174218
  24.3667556  -2.7727991  45.4388754  24.0025763  -3.2997370  46.1501675
  25.2234672  -3.1629522  45.2655239  26.7648376   0.7178888  52.1015933
  26.4649099   1.6203927  51.9931740  26.4199436   0.4511071  52.9537086
  23.9862264  -5.2880434  41.4196769  23.8661889  -4.8423383  42.2582250
  23.2914852  -4.9395116  40.8610307  21.7469156   7.4823208  45.0686900
  21.6693186   8.4331033  45.1475381  21.1430800   7.1369081  45.7261827
  28.2916913   0.1666858  49.6390685  27.6625775   0.3312572  48.9366753
  27.9042575   0.5808468  50.4101649  32.1706144   1.1021296  46.9935049
  31.4857183   1.4820197  46.4432082  32.2549994   1.7116622  47.7266996
  29.4257076  -1.2518745  53.5930392  29.6373971  -0.6086985  52.9164773
  29.3786824  -2.0856429  53.1252322  23.8444874  -0.0958734  46.9040770
  24.3083220   0.1828969  46.1145392  23.5801673  -0.9975289  46.7213861
  20.7368956  -0.5487252  49.8420533  21.3070313  -0.1199984  49.2038018
  21.3277067  -0.8304668  50.5404719  22.7813761  -3.9735582  43.7130335
  23.4837804  -3.5214538  44.1804261  22.4494389  -4.6151763  44.3410228
  30.5402904   1.6253210  51.7652749  31.3620348   1.2233398  51.4835431
  30.5365307   1.5221444  52.7168865  24.0207525   2.8405361  43.7892440
  23.8853200   3.6856897  44.2177288  24.5617338   3.0424639  43.0258374
  17.4736923   0.3580799  44.3620365  17.9861443   1.1524049  44.5125930
  18.1259635  -0.3392910  44.2953967  19.2831807   3.4746555  46.4443118
  19.4598436   4.3964520  46.2564102  20.0788641   3.1604975  46.8737498
  20.4063123   4.9924729  52.4453461  20.9570548   4.8641792  51.6730455
  19.5674599   5.2919618  52.0948354  27.7457240   3.7431727  55.9474184
  27.7275715   4.5640609  55.4554453  28.6677160   3.6185803  56.1724325
  27.3350271  -3.6455466  40.8263769  26.8196895  -2.8750861  41.0652156
  27.0627580  -4.3190330  41.4496830  32.3084546  -0.8923111  42.7616942
  31.5313988  -1.2311952  42.3172104  32.9876027  -0.8870488  42.0871907
  25.5683006   0.3861849  44.3016504  25.0404368  -0.3485391  43.9889741
  25.0670509   1.1636526  44.0556472  30.5475852  -1.4189130  49.4183550
  29.8899527  -0.7289869  49.5063679  31.3516252  -1.0292698  49.7617537
  29.3581311  -3.0644757  47.4687492  29.8713193  -2.4314766  47.9709202
  30.0082535  -3.6643562  47.1030852  23.7135607  -1.7957940  37.3051477
  22.8062668  -2.0268687  37.5042626  24.2106639  -2.5920321  37.4925459
  26.6203685   6.9139567  40.2248163  25.9465384   7.2171264  40.8333121
  27.0069507   7.7168647  39.8753620  26.6197190  -4.1903886  44.8448513
  27.3669009  -3.6782489  44.5355635  26.8888779  -4.5119833  45.7052906
  24.8923840  -1.6945345  41.8275467  23.9835059  -1.9786313  41.9247937
  24.9218924  -1.2746267  40.9678774  30.1243107   1.9161244  45.5966635
  29.6705435   1.0752154  45.6531825  29.4937074   2.5522642  45.9341415
  28.5676047   3.7537741  46.5316453  28.8599021   4.3142798  45.8128818
  29.0774667   4.0466302  47.2869612  23.4408734  -4.0816725  47.9285262
  23.4957344  -5.0342888  47.8527739  22.6299936  -3.9257286  48.4126561
  24.5899928  -0.1536602  39.1663546  24.1519358  -0.8700743  38.7069183
  25.3310369   0.0739513  38.6048637  23.5309672   4.5318092  47.6209906
  23.4885851   4.7578938  46.6918438  24.4472371   4.2981466  47.7695707
  32.7073043  -1.8779405  45.2239864  32.5690941  -1.6877809  44.2961053
  32.3509261  -1.1160022  45.6807915  32.7342422   0.1897122  50.2351136
  33.1678929   0.0972411  51.0834190  33.4474003   0.1654623  49.5971152
  21.6475473   1.4081121  47.4171869  22.4416071   0.9131441  47.2154444
  20.9367165   0.8798984  47.0539574  26.4670317   3.7899216  51.7684236
  26.5207339   4.3590153  52.5361952  25.5985099   3.9601101  51.4038273
  33.5957972   0.2320823  52.7684021  33.7893862   1.1366633  53.0143296
  33.4958590  -0.2271758  53.6022606  24.2246749   1.9810143  51.0969706
  24.0857834   1.6128927  51.9695644  23.4361345   2.4957782  50.9253664
  24.8194901   7.0819239  42.4395242  24.9946656   6.6107282  43.2540865
  24.1327689   7.7085006  42.6676503  25.7751964   1.3591746  48.4858544
  25.4401796   1.3192516  49.3816193  25.2755909   0.6936461  48.0128954
  28.7111155  -1.2952220  38.7595603  28.0940326  -2.0205392  38.6628656
  28.2427644  -0.5342860  38.4162678  30.3665287   3.4146688  56.4201384
  30.3077833   2.7305908  55.7531967  30.7684806   4.1565678  55.9682010
  19.3855986  10.2308602  49.2135103  19.6252584  10.8627126  49.8914121
  18.5425182   9.8796642  49.5000462  30.3682694   1.3786272  54.6515363
  29.4809473   1.0412194  54.7741762  30.9381245   0.6469303  54.8884129
  23.8983848   6.0387725  51.6176606  23.8254019   6.8442696  52.1295911
  23.4561241   6.2379690  50.7924628  23.6873627   5.2759495  45.1279428
  22.9041149   5.8181175  45.2217653  24.3866373   5.7933474  45.5273669
  26.3582531   5.9374559  53.7734765  27.0710504   6.5722023  53.7010667
  25.8672560   6.0338425  52.9574767  28.0800058  -0.1574189  45.3452057
  27.1456337  -0.0372726  45.1756761  28.2576727  -1.0601722  45.0812067
  29.5348841   2.0286952  42.8788243  29.8108685   1.9143546  43.7882117
  28.6653339   1.6304437  42.8400416  26.1702905   6.2773303  46.5221057
  26.3525299   5.4594959  46.9848809  26.9935891   6.4940995  46.0845947
  26.5045070   5.2041488  43.7836105  27.0332837   4.6933942  43.1706267
  26.7673290   4.8884018  44.6481638  17.0062163   3.2205357  51.5271439
  17.5915600   2.4749045  51.6599343  16.8087001   3.5309314  52.4108103
  19.8600818   6.2556604  46.5433881  19.1911193   6.7402732  46.0597921
  19.7213688   6.5025825  47.4577260  24.0006087   8.2900348  53.1416539
  24.5524395   8.4531969  53.9065625  24.3412280   8.8804786  52.4696564
  27.1374474   6.2382323  50.1280222  27.0125613   5.4372063  49.6191167
  27.7953565   6.7328517  49.6394192  29.2009382   4.0391344  51.7559772
  28.2539718   3.9196695  51.6838098  29.5492155   3.1513842  51.8386033
  26.2055816   3.8344060  47.9564124  26.0580778   2.9060767  48.1371694
  27.0309309   3.8564150  47.4721199  29.8089938   4.6572619  49.0428997
  30.7336485   4.4515480  48.9053448  29.6405241   4.4089020  49.9518338
  29.5985254   5.1758286  44.3991088  29.7722131   4.6104708  43.6464941
  30.0914145   5.9759181  44.2170578  30.5860426   4.4925050  41.4987986
  31.2811331   5.1131743  41.7175301  30.9283576   3.6420402  41.7740364
  32.4851849   1.9424756  43.0275317  33.0103173   2.2812029  42.3024637
  32.3974202   1.0071771  42.8438452  24.1471898   5.8558830  55.1565194
  24.4559024   5.6107976  56.0287893  24.9447380   6.0605468  54.6684064
  24.1692510   8.0096739  47.3870570  23.7297500   7.5173118  48.0803427
  24.9200627   7.4669707  47.1462646  16.6484849   4.2008280  47.3895198
  17.4742869   3.9012052  47.0093842  16.2978901   3.4315902  47.8384987
  21.6166382   3.5534748  49.4592872  20.9946392   2.8905453  49.1595100
  22.2871249   3.5795880  48.7766520  14.8493454   2.1194607  48.3484132
  14.0125362   1.6916781  48.1668133  14.8217100   2.3127050  49.2854923
  21.1779889   2.1038672  42.9351333  21.3268010   2.7874136  42.2818005
  21.9846333   2.0843762  43.4500788  33.7961827   1.8447067  55.8901265
  33.5046636   2.2077048  56.7264726  33.1833959   1.1314076  55.7114597
  34.9957510  -0.5900053  48.4103835  35.8304401  -0.1510249  48.5741396
  35.1316638  -1.0661400  47.5912081  24.6775295   4.5986802  40.4063080
  24.1049262   5.2176989  39.9533552  25.2508088   5.1486164  40.9403002
  27.8972554   4.8823952  41.5371662  28.8303228   4.8169514  41.7404538
  27.8095767   5.7180219  41.0786195  30.5260571   4.1989823  38.4975610
  30.4474203   3.8649686  39.3911368  31.3470238   4.6911590  38.4967082
  25.0622093  -4.0652385  37.7479132  26.0081198  -4.1946177  37.8167550
  24.6836338  -4.8037723  38.2248561  16.9605560   6.3320894  49.1109013
  16.8260028   5.5721295  48.5447011  16.5437622   7.0561794  48.6437802
  28.0964523   1.5157818  38.1185588  28.8000373   1.7207820  38.7343244
  27.3727172   2.0834580  38.3834672  28.9262333  -2.7332321  44.2387858
  28.8697535  -2.2763769  43.3995491  29.4790676  -3.4941636  44.0610701
  20.1174686   7.2290211  49.3227455  20.0007070   8.1735644  49.2206146
  19.2967132   6.9263773  49.7113255  30.0051220   1.9540347  40.1684048
  30.8396824   1.5221546  39.9861523  29.8435563   1.7822361  41.0960943
  29.6597112  -1.5427540  41.5340387  29.6045916  -1.7083268  40.5928832
  29.0343168  -0.8351507  41.6902577  21.1429200   7.8818473  52.5383384
  22.0456447   7.9142084  52.8549879  20.9166570   6.9518924  52.5529720
  22.8982802   6.6349460  49.1993463  21.9478433   6.6351321  49.0857835
  23.2015288   5.8882194  48.6829497  38.6335495  12.4709998  50.2639225
  39.2713905  12.3516746  49.5602565  38.5156338  13.4190842  50.3227177
  35.4425202  12.4237426  50.2000750  35.1043713  12.3078491  49.3121284
  36.3114970  12.0228591  50.1801756  31.3012017  14.2772903  46.1897641
  30.7376883  14.1862840  45.4213928  31.1864412  13.4572807  46.6700133
  35.9244985  13.5772278  56.1586955  35.9133625  13.1825076  55.2867459
  36.0865624  12.8438351  56.7520727  28.8476449  15.7724094  49.0281861
  29.6397741  15.4314919  48.6128160  29.0873099  15.8819069  49.9484014
  36.8811576  17.9443870  41.5012105  36.2299556  18.5297951  41.1146119
  37.6755939  18.4750065  41.5607143  30.8067203  15.0333008  41.8999240
  31.5798079  14.4861995  41.7612116  31.1592602  15.8977257  42.1113701
  32.6452246  16.3609390  55.1066139  32.3542112  17.2655021  54.9912805
  33.2809230  16.4025917  55.8210209  33.5708453  13.7386238  51.6967499
  34.1672025  13.5142261  50.9824462  33.6283424  12.9970984  52.2992947
  33.1433481  11.1925674  39.5317690  33.3959002  10.6707195  38.7701153
  32.2058040  11.0291819  39.6344373  38.1876764  10.1961452  47.3392433
  38.9739853   9.7780875  46.9882850  38.4515468  11.1007544  47.5074081
  38.3586841  15.6334302  42.0381090  37.7232674  15.7068929  42.7501994
  38.0284248  16.2227901  41.3600169  43.5885191  10.1336685  48.2425411
  44.3210363   9.5635902  48.4763241  42.8324547   9.7458286  48.6831917
  32.8629770  13.0953780  41.7342065  32.7466028  12.4198683  42.4023149
  32.9732030  12.6086154  40.9174218  35.2061311  12.5563927  45.4388754
  34.8419518  12.0294548  46.1501675  36.0628427  12.1662396  45.2655239
  41.1110611   3.8458259  52.7020020  40.7793936   4.7153670  52.4781235
  40.5156225   3.5294543  53.3814050  34.8466798   7.5853826  40.4350102
  35.0141200   8.4534063  40.8020573  34.6563967   7.7481108  39.5111392
  37.6042131  16.0470805  52.1015933  37.3042854  16.9495844  51.9931740
  37.2593190  15.7802989  52.9537086  31.0554612  12.4984602  48.1352637
  30.1305109  12.3660816  48.3430329  31.3039026  13.2778821  48.6322580
  41.0039275   8.5653346  49.7813370  40.0956152   8.4968754  49.4872131
  40.9526870   9.0425291  50.6095196  34.8256019  10.0411484  41.4196769
  34.7055644  10.4868535  42.2582250  34.1308607  10.3896802  40.8610307
  28.4163423  12.1417876  48.9696426  28.5455805  12.3952355  49.8835838
  27.7360875  12.7345584  48.6501081  35.0780140   9.9842991  57.7248267
  34.3013475  10.5436911  57.7151132  35.7170704  10.4699774  58.2463138
  42.8700921   6.7669784  51.5591244  42.2275301   7.0602317  50.9131039
  42.3655850   6.6522704  52.3644441  40.5241085  10.5132957  42.2477103
  41.4358941  10.7460344  42.0724801  40.0150732  11.0970001  41.6852182
  33.3326513  12.7928445  57.2866234  34.0741197  13.3313488  57.0101058
  32.6263498  13.4194733  57.4437786  38.8081852  14.9357585  55.8838396
  39.2165208  14.4939996  55.1393028  38.0859114  14.3610213  56.1372589
  35.1612922   9.8730192  53.2571953  36.0074118  10.2969605  53.4006602
  35.1011560   9.2163816  53.9510516  39.1310667  15.4958776  49.6390685
  38.5019530  15.6604490  48.9366753  38.7436329  15.9100385  50.4101649
  43.0099899  16.4313213  46.9935049  42.3250937  16.8112115  46.4432082
  43.0943748  17.0408540  47.7266996  38.3112368   7.5334560  54.9153126
  38.0673300   8.2876621  54.3787402  38.5872298   7.9119908  55.7500374
  40.2650831  14.0773172  53.5930392  40.4767726  14.7204932  52.9164773
  40.2180579  13.2435489  53.1252322  37.8677060   6.6890993  50.4966964
  37.0061539   6.9872247  50.7883702  37.8939494   6.9061392  49.5647997
  34.6838629  15.2333184  46.9040770  35.1476974  15.5120887  46.1145392
  34.4195427  14.3316628  46.7213861  31.5762710  14.7804665  49.8420533
  32.1464067  15.2091934  49.2038018  32.1670822  14.4987250  50.5404719
  33.6207515  11.3556336  43.7130335  34.3231558  11.8077380  44.1804261
  33.2888143  10.7140155  44.3410228  32.0687877   9.9468093  58.0881544
  31.4386537  10.6284374  58.3216941  31.9623964   9.8351174  57.1434683
  27.3632849   9.6139889  49.0147469  26.5731903   9.8697417  48.5387579
  27.8544096  10.4288227  49.1199509  41.3796659  16.9545128  51.7652749
  42.2014102  16.5525315  51.4835431  41.3759061  16.8513362  52.7168865
  29.3147594   9.9784468  45.9730945  28.5178758  10.0903162  46.4914441
  29.0873187  10.3171120  45.1071836  35.1453262  16.5029171  53.9213460
  35.2097694  16.9649578  54.7571632  34.4364186  15.8726536  54.0495770
  25.6470552   9.8670379  51.4462459  25.8978590  10.7517389  51.7120035
  26.1830100   9.6874981  50.6737551  49.4702652  13.2983876  48.1137721
  48.7166360  12.7291274  47.9581725  49.6050193  13.2646541  49.0608356
  34.8601280  18.1697279  43.7892440  34.7246954  19.0148814  44.2177288
  35.4011092  18.3716556  43.0258374  28.3130677  15.6872717  44.3620365
  28.8255198  16.4815967  44.5125930  28.9653390  14.9899007  44.2953967
  30.1225562  18.8038473  46.4443118  30.2992190  19.7256438  46.2564102
  30.9182395  18.4896892  46.8737498  34.2636580   5.6646738  58.0427052
  35.0046294   6.2653891  57.9631514  34.4954503   4.9224375  57.4845095
  29.4077918  10.8503105  56.3205282  29.2931433   9.9488362  56.6212381
  28.5522436  11.0966802  55.9690098  36.4869756  18.7920845  57.9192782
  36.0433610  18.0057224  57.6013687  37.1486970  18.9799996  57.2536673
  31.2456877  20.3216647  52.4453461  31.7964302  20.1933710  51.6730455
  30.4068353  20.6211536  52.0948354  38.5850994  19.0723645  55.9474184
  38.5669469  19.8932526  55.4554453  39.5070914  18.9477720  56.1724325
  35.0424048  16.5867775  56.7897692  35.5752385  15.8256063  56.5597000
  34.5138129  16.2941426  57.5321846  38.2093743   1.6927841  52.3191334
  37.8658013   2.5829482  52.2430444  38.5772706   1.5029498  51.4560919
  26.2779594  14.0161371  45.1379936  27.1154816  14.4258379  44.9213644
  26.4557861  13.0760813  45.1080130  38.1744026  11.6836452  40.8263769
  37.6590649  12.4541056  41.0652156  37.9021334  11.0101588  41.4496830
  35.7591137   6.5286152  45.8849007  34.9032733   6.1393003  45.7054646
  36.1718089   6.6078113  45.0248793  37.2890284   4.0632496  50.2840567
  36.7855079   4.0262631  49.4708372  37.5820890   4.9725238  50.3437224
  33.5333169   4.1471225  49.2906749  34.3986166   3.9514034  48.9312638
  33.6010678   3.9181577  50.2176105  43.1478300  14.4368806  42.7616942
  42.3707743  14.0979966  42.3172104  43.8269781  14.4421430  42.0871907
  37.9630329   9.5563544  42.6523550  37.6580465   9.8709693  43.5033693
  38.9160771   9.6344964  42.6950883  36.4076761  15.7153767  44.3016504
  35.8798122  14.9806527  43.9889741  35.9064264  16.4928443  44.0556472
  41.3869607  13.9102788  49.4183550  40.7293281  14.6002049  49.5063679
  42.1910006  14.2999220  49.7617537  31.1395489   6.3773433  46.6623115
  31.7139240   6.1548615  45.9296308  31.7266471   6.4462128  47.4151717
  40.1975066  12.2647160  47.4687492  40.7106947  12.8977152  47.9709202
  40.8476290  11.6648356  47.1030852  31.4665076   8.4077894  40.6819001
  30.6302388   8.7452581  41.0028275  31.3269845   8.2726874  39.7446138
  33.4418156   3.2514682  45.3898185  32.7882569   2.9363699  44.7654800
  33.3998630   2.6290423  46.1158008  34.5529361  13.5333977  37.3051477
  33.6456423  13.3023231  37.5042626  35.0500393  12.7371597  37.4925459
  36.6755897   9.7396616  49.7145833  35.7578458   9.9611563  49.5567521
  37.0916040   9.8142926  48.8557540  37.4590944  11.1388032  44.8448513
  38.2062763  11.6509429  44.5355635  37.7282534  10.8172084  45.7052906
  35.7317595  13.6346572  41.8275467  34.8228814  13.3505605  41.9247937
  35.7612678  14.0545651  40.9678774  40.9636862  17.2453162  45.5966635
  40.5099189  16.4044072  45.6531825  40.3330829  17.8814560  45.9341415
  39.9069782   8.1745148  46.8267302  39.1692538   7.6622534  47.1577545
  40.1596555   7.7345529  46.0150579  39.4069801  19.0829658  46.5316453
  39.6992776  19.6434716  45.8128818  39.9168422  19.3758219  47.2869612
  40.0081409   0.9521400  47.4209071  40.3140286   0.0918763  47.1334986
  40.7334014   1.5439020  47.2208065  26.3005765  11.3552086  45.8090669
  26.1030165  10.7621447  45.0841736  25.7452429  11.0504297  46.5266608
  34.2802489  11.2475193  47.9285262  34.3351098  10.2949029  47.8527739
  33.4693691  11.4034632  48.4126561  35.4293682  15.1755316  39.1663546
  34.9913112  14.4591175  38.7069183  36.1704123  15.4031431  38.6048637
  32.2194849   9.8652253  45.6875641  31.4062714  10.1646423  46.0940833
  32.7153843   9.4707941  46.4050124  34.3703426  19.8610010  47.6209906
  34.3279605  20.0870856  46.6918438  35.2866125  19.6273384  47.7695707
  37.8169060  10.3294077  54.5190535  38.1718448  10.5565550  55.3785001
  38.4641191  10.6612454  53.8967790  43.5466797  13.4512513  45.2239864
  43.4084696  13.6414109  44.2961053  43.1903016  14.2131896  45.6807915
  31.7108923   7.4370608  51.3036876  32.3508303   7.2959367  50.6059840
  30.8786454   7.1505121  50.9275478  43.5736177  15.5189040  50.2351136
  44.0072683  15.4264329  51.0834190  44.2867757  15.4946540  49.5971152
  32.4869227  16.7373039  47.4171869  33.2809826  16.2423359  47.2154444
  31.7760920  16.2090902  47.0539574  37.3064072  19.1191134  51.7684236
  37.3601094  19.6882070  52.5361952  36.4378853  19.2893019  51.4038273
  28.7951991  10.8816120  43.4931621  27.8649579  10.8200576  43.7101584
  28.8909463  10.3592073  42.6968263  28.7137540   7.4070933  46.0809863
  28.9744357   8.3216266  45.9719024  29.5354712   6.9395376  46.2306476
  30.1862465   8.8208690  53.2508688  30.8585518   8.6126052  52.6021337
  29.3592252   8.6230776  52.8113920  44.4351726  15.5612741  52.7684021
  44.6287616  16.4658551  53.0143296  44.3352344  15.1020160  53.6022606
  36.0888037   5.4470631  55.2674348  35.4415952   6.1460581  55.1738825
  36.8589052   5.8806775  55.6350597  39.4966835  15.7119483  58.3424902
  39.3452341  15.4830035  57.4254985  39.4871514  16.6690085  58.3556247
  36.2652171  13.2851396  53.3271168  37.1944231  13.4362556  53.1540136
  35.8443201  13.3735417  52.4719815  35.0640503  17.3102061  51.0969706
  34.9251589  16.9420845  51.9695644  34.2755099  17.8249700  50.9253664
  36.6145718  16.6883663  48.4858544  36.2795551  16.6484433  49.3816193
  36.1149664  16.0228379  48.0128954  30.5889962  12.0951293  54.0111125
  30.4509760  11.3631532  54.6122664  31.4994886  12.0060193  53.7295313
  39.5504910  14.0339698  38.7595603  38.9334081  13.3086526  38.6628656
  39.0821398  14.7949058  38.4162678  33.2172263  11.8071253  53.4994804
  33.9271881  11.1664445  53.4581423  33.1741571  12.0584147  54.4220985
  41.2059042  18.7438606  56.4201384  41.1471588  18.0597826  55.7531967
  41.6078560  19.4857596  55.9682010  31.9301197   8.7936470  55.3190444
  31.3938554   8.3427209  55.9712040  31.3417905   8.9282379  54.5760908
  30.2249740  25.5600520  49.2135103  30.4646339  26.1919044  49.8914121
  29.3818937  25.2088560  49.5000462  31.3403456   8.2525122  37.8816908
  30.4632922   8.1313923  37.5179154  31.8161209   7.4611200  37.6295796
  41.2076449  16.7078190  54.6515363  40.3203228  16.3704112  54.7741762
  41.7775000  15.9761221  54.8884129  22.8605596  13.0402282  47.9758415
  23.5476636  12.7264012  47.3879430  22.7053725  13.9443646  47.7025666
  27.6640318   7.9292478  52.4043438  27.5798507   7.3218148  51.6693848
  26.8423025   8.4201496  52.4052935  37.8364032   6.4146042  47.7713633
  38.3332732   5.6616004  47.4514704  37.0651014   6.4510358  47.2056843
  45.6893789  12.1186407  49.4131925  45.6783666  13.0011123  49.0425858
  44.8211169  11.7657958  49.2186462  38.9193813  15.1717729  45.3452057
  37.9850091  15.2919191  45.1756761  39.0970481  14.2690196  45.0812067
  34.4199001   8.5563425  47.4985318  34.0496788   8.0034465  48.1866224
  34.9158093   7.9521558  46.9460318  42.3066364  11.0135048  45.8802091
  42.7726816  11.8463040  45.8062394  42.7573865  10.5480030  46.5847349
  32.2488199  19.0160920  54.5940336  32.9497659  19.6497403  54.7469730
  31.7783314  19.3575651  53.8335975  40.3742595  17.3578869  42.8788243
  40.6502439  17.2435464  43.7882117  39.5047094  16.9596354  42.8400416
  40.2783027   3.3815635  49.9192992  39.3646107   3.6119862  50.0875199
  40.7076128   3.4654079  50.7707025  40.0489485  11.5705527  52.4192886
  39.3960936  11.8181435  51.7645339  40.4269865  10.7569665  52.0855364
  37.0096659  21.6065220  46.5221057  37.1919054  20.7886876  46.9848809
  37.8329645  21.8232913  46.0845947  36.0977058  12.3125338  58.9058923
  35.4217695  12.2119468  59.5761299  36.9204692  12.1564552  59.3694921
  27.8455917  18.5497275  51.5271439  28.4309354  17.8040963  51.6599343
  27.6480756  18.8601231  52.4108103  22.4373572  11.1202875  50.2475882
  22.4757672  10.5866466  51.0413000  21.9313865  10.5938080  49.6286859
  29.8164334   5.9667415  53.7438424  29.8805661   6.8282246  53.3315822
  29.7531455   5.3541417  53.0110783  29.2916607   8.0390548  57.3911458
  29.9188646   7.6567625  58.0048983  28.4344526   7.8204750  57.7567151
  39.6910716  18.4453523  58.9965194  40.2350620  19.0583481  58.5020149
  39.1097560  19.0033102  59.5132207  26.0682150   9.8466977  43.3229813
  26.3635591   8.9377656  43.2696867  25.1670185   9.8254717  43.0010816
  29.5976397   7.9222974  49.3057362  28.8762982   8.5358941  49.1664835
  30.3869652   8.4580738  49.2274008  40.0403137  19.3683261  51.7559772
  39.0933472  19.2488612  51.6838098  40.3885910  18.4805759  51.8386033
  32.4002710   5.2577400  55.5798014  32.9237112   5.5039697  56.3424323
  32.1815044   6.0897435  55.1601151  27.7969991   7.5281075  43.4469138
  27.4682697   6.6478454  43.2644244  28.1509362   7.4728743  44.3345528
  37.0449570  19.1635977  47.9564124  36.8974533  18.2352685  48.1371694
  37.8703064  19.1856068  47.4721199  30.9111814   7.8154045  43.8144616
  31.2507887   8.3439966  43.0923224  31.3583935   8.1534451  44.5903183
  40.6483692  19.9864536  49.0428997  41.5730239  19.7807398  48.9053448
  40.4798995  19.7380937  49.9518338  33.6055255   6.1991095  53.2647684
  33.2652076   5.3998908  53.6668364  32.8994262   6.4992806  52.6924517
  34.2571727   3.2840408  51.7175007  35.0797796   2.8100886  51.5953897
  34.5009791   4.0630891  52.2173693  32.8979962   6.3128666  42.0137909
  33.6188324   6.6909919  41.5101626  32.2745266   7.0317543  42.1172887
  37.0411084   7.0173815  42.9496241  37.2574699   7.8998453  42.6485069
  36.5605152   6.6260029  42.2201883  31.7810306   9.9759528  49.5266986
  31.6354887  10.2899831  50.4191267  31.3035509  10.5944429  48.9737884
  33.6406689   6.9662076  49.5747875  33.6268258   6.0703170  49.2380173
  34.3579117   6.9732740  50.2086161  35.4932819   7.3999417  51.6201003
  35.2350597   8.3216487  51.6185333  34.9617860   7.0029851  52.3101467
  26.2555968  12.5164873  52.4654647  25.7109436  13.2924681  52.5974921
  27.1335318  12.8635677  52.3073768  33.0443585   5.8476457  44.8435445
  33.1659496   4.9193103  45.0426333  32.7545627   5.8615143  43.9313761
  35.9134775   3.5331367  47.9802165  35.9356472   3.5970700  47.0254145
  36.3302834   2.6935876  48.1742671  46.2918399  13.2686627  46.0181388
  46.7349545  12.5193952  45.6200511  45.4144910  13.2596763  45.6355120
  27.0421990  11.6434769  55.3584804  26.3003726  11.7917404  55.9449434
  26.7214734  11.9043035  54.4951553  43.3245604  17.2716674  43.0275317
  43.8496928  17.6103946  42.3024637  43.2367956  16.3363689  42.8438452
  27.4878604  19.5300198  47.3895198  28.3136623  19.2303970  47.0093842
  27.1372656  18.7607820  47.8384987  32.4560137  18.8826666  49.4592872
  31.8340146  18.2197371  49.1595100  33.1265004  18.9087798  48.7766520
  25.6887209  17.4486524  48.3484132  24.8519117  17.0208699  48.1668133
  25.6610854  17.6418968  49.2854923  32.5284664   7.3608454  59.0525378
  32.5772820   8.2370577  58.6703148  33.0707178   6.8185847  58.4797021
  43.0139510  17.9049577  58.3326515  42.2235054  17.8873716  57.7931015
  42.7772864  18.4437871  59.0875552  43.1337385  14.7542044  55.6459244
  43.1835390  14.5892051  56.5874766  43.0251308  13.8869303  55.2557124
  32.0173644  17.4330589  42.9351333  32.1661764  18.1166054  42.2818005
  32.8240087  17.4135679  43.4500788  40.4241147  10.7372972  56.9618550
  41.3251010  10.5979436  56.6702548  40.4989122  10.9027426  57.9016728
  34.7583953   8.1139826  55.8071737  33.8887262   8.4073392  55.5354325
  34.9943433   8.6980271  56.5279000  44.6355582  17.1738985  55.8901265
  44.3440390  17.5368966  56.7264726  44.0227713  16.4605993  55.7114597
  45.8351264  14.7391865  48.4103835  46.6698155  15.1781669  48.5741396
  45.9710393  14.2630518  47.5912081  42.8842770  12.2971600  54.3581323
  43.3596892  12.4899246  53.5500175  41.9608335  12.3530786  54.1124707
  29.7726277  13.4595767  43.9412401  29.5272319  12.5558097  44.1392612
  29.9422191  13.4612917  42.9991879  37.4622986   4.3319443  53.3237157
  37.9804930   5.0680470  52.9983646  37.1078119   4.6383437  54.1583916
  29.0421924   9.1924125  41.4398563  28.3491169   9.2668479  40.7838599
  28.7973676   8.4284468  41.9620080  37.7135581   0.7519726  48.8438054
  37.9937334   0.0842915  49.4698480  38.4986188   0.9448821  48.3312717
  35.5169049  19.9278720  40.4063080  34.9443016  20.5468907  39.9533552
  36.0901843  20.4778081  40.9403002  41.5844439   9.1737360  52.5909629
  42.5361862   9.2735457  52.6121853  41.4147889   8.3815628  53.1007713
  39.6058818   6.2592943  52.7769030  39.0108751   6.5397956  52.0815518
  39.3208515   6.7486844  53.5485771  44.0632517  12.3943480  51.7051928
  44.0308837  11.4559480  51.8911612  44.6733140  12.4727516  50.9717753
  35.9015848  11.2639533  37.7479132  36.8474952  11.1345741  37.8167550
  35.5230093  10.5254194  38.2248561  44.2127005   9.1854523  51.7510212
  43.6966054   8.4012980  51.5640140  45.0966954   8.8573240  51.9156731
  41.8737732   2.9295539  47.7106024  41.6762553   2.6210627  48.5949356
  42.4837438   3.6557177  47.8403954  49.8809067  13.4559486  50.8457965
  50.6112455  13.1944774  51.4065669  49.2716012  12.7188208  50.8860033
  47.9624364  11.5967349  51.4432416  47.2357527  11.4623314  50.8348908
  47.5471651  11.9044178  52.2489134  35.7854540  15.3157279  59.2079789
  36.7057550  15.4935878  59.4019836  35.7504123  14.3713324  59.0559489
  34.0858765   9.1889509  37.6834018  33.1790220   8.8922622  37.7596731
  34.3634746   8.8919327  36.8168304  25.0036705  10.5095872  48.1333064
  24.6839490   9.6561180  47.8407438  24.4570133  10.7244450  48.8891031
  28.7816613  13.2258313  51.8502571  29.0002623  14.1575421  51.8690604
  29.1942387  12.8666288  52.6357374  35.7020831   3.7326399  43.8378259
  34.8921559   3.3873484  44.2133505  36.3905247   3.4233942  44.4265871
  37.6311379   2.8104445  45.4602556  38.1842417   3.2299899  46.1192579
  37.8681465   1.8840194  45.5025512  33.6544478   8.7991519  61.2405320
  33.5541205   9.7485876  61.1717411  33.4366020   8.4709758  60.3681390
  32.8557549   6.0476444  37.8245997  33.7176713   6.3731342  38.0841814
  33.0407894   5.2607940  37.3119063  24.8724965  14.1298784  50.1026186
  24.1788437  13.7152737  49.5896140  25.6197956  14.1719320  49.5059605
  41.0090186   4.9204971  44.9681220  40.4288855   5.5789775  44.5859272
  40.7426119   4.0982315  44.5568637  39.4593752   4.3210028  47.1702540
  39.9593531   4.4326563  46.3616859  40.1029360   4.0171081  47.8103349
  33.5175748  12.2288658  60.0570381  33.0342830  13.0289018  60.2634270
  33.6036687  12.2396603  59.1037825  26.7861708  14.0617038  47.9792201
  26.7632396  14.1604725  47.0274084  27.0962344  14.9082188  48.3009367
  29.4449086  16.1193193  52.0938815  30.3992339  16.0877135  52.0268747
  29.2461609  15.6583816  52.9089041  30.0348468  14.6894309  54.6609613
  30.8541357  15.1838387  54.6844450  30.3085275  13.7726277  54.6327180
  39.7915064   7.0805061  44.0237568  38.9040919   7.3654712  43.8057763
  40.2069053   6.9198824  43.1764845  43.1429600   7.1051582  47.7391907
  43.9189990   7.5948034  48.0116524  42.4177734   7.5309636  48.1963777
  45.5802159   7.8179201  48.7965848  46.1746649   7.5774937  48.0859156
  45.6528742   7.0986332  49.4239384  27.7999314  21.6612812  49.1109013
  27.6653782  20.9013213  48.5447011  27.3831377  22.3853712  48.6437802
  38.9358277  16.8449736  38.1185588  39.6394128  17.0499738  38.7343244
  38.2120926  17.4126498  38.3834672  39.7656088  12.5959597  44.2387858
  39.7091289  13.0528148  43.3995491  40.3184430  11.8350281  44.0610701
  43.5760894   8.3849329  45.0637978  43.3197828   7.9845964  45.8946185
  42.9513762   9.0993123  44.9388117  47.8873231  11.1245402  47.5709269
  47.3272789  11.1938591  48.3440831  47.2816735  10.9486387  46.8508765
  30.9568440  22.5582129  49.3227455  30.8400824  23.5027562  49.2206146
  30.1360887  22.2555691  49.7113255  40.8444975  17.2832265  40.1684048
  41.6790579  16.8513463  39.9861523  40.6829318  17.1114279  41.0960943
  40.4990867  13.7864378  41.5340387  40.4439671  13.6208650  40.5928832
  39.8736922  14.4940411  41.6902577  25.2883382   9.0232443  55.3601810
  25.9342246   8.5131396  55.8489035  25.0800533   9.7601124  55.9345235
  37.8136774  16.0913290  60.8593950  38.6827934  16.2653942  60.4980585
  37.3343526  16.9107707  60.7369680  33.8086992   3.2872487  41.1125706
  33.7965662   4.2314327  41.2693977  34.7010414   3.1042633  40.8185167
  31.9822954  23.2110391  52.5383384  32.8850201  23.2434001  52.8549879
  31.7560324  22.2810842  52.5529720  33.7376556  21.9641378  49.1993463
  32.7872187  21.9643239  49.0857835  34.0409043  21.2174112  48.6829497
  37.6239112  -0.1184736  45.3671643  36.8571508  -0.6726250  45.5128325
  38.0349817  -0.0462867  46.2285794  54.4278946  25.4628603  48.2425411
  55.1604117  24.8927820  48.4763241  53.6718301  25.0750203  48.6831917
  51.9504366  19.1750177  52.7020020  51.6187691  20.0445588  52.4781235
  51.3549979  18.8586461  53.3814050  51.8433029  23.8945263  49.7813370
  50.9349907  23.8260672  49.4872131  51.7920625  24.3717208  50.6095196
  53.7094676  22.0961702  51.5591244  53.0669056  22.3894235  50.9131039
  53.2049604  21.9814622  52.3644441  49.6475607  30.2649503  55.8838396
  50.0558963  29.8231913  55.1393028  48.9252868  29.6902130  56.1372589
  49.1506122  22.8626478  54.9153126  48.9067054  23.6168538  54.3787402
  49.4266053  23.2411825  55.7500374  51.1044585  29.4065090  53.5930392
  51.3161480  30.0496850  52.9164773  51.0574333  28.5727407  53.1252322
  48.7070814  22.0182911  50.4966964  47.8455293  22.3164164  50.7883702
  48.7333249  22.2353310  49.5647997  52.2190413  32.2837046  51.7652749
  53.0407857  31.8817233  51.4835431  52.2152816  32.1805280  52.7168865
  60.3096406  28.6275794  48.1137721  59.5560114  28.0583192  47.9581725
  60.4443947  28.5938459  49.0608356  42.1862374  19.5780776  60.4506795
  41.7929319  19.0246975  61.1254440  43.0028514  19.8891355  60.8413313
  45.1030335  20.9938655  58.0427052  45.8440048  21.5945808  57.9631514
  45.3348258  20.2516293  57.4845095  47.3263510  34.1212763  57.9192782
  46.8827365  33.3349141  57.6013687  47.9880724  34.3091913  57.2536673
  49.4244749  34.4015563  55.9474184  49.4063224  35.2224444  55.4554453
  50.3464669  34.2769638  56.1724325  45.8817803  31.9159692  56.7897692
  46.4146140  31.1547980  56.5597000  45.3531884  31.6233344  57.5321846
  49.0487498  17.0219758  52.3191334  48.7051767  17.9121400  52.2430444
  49.4166460  16.8321416  51.4560919  48.1284038  19.3924413  50.2840567
  47.6248834  19.3554549  49.4708372  48.4214645  20.3017156  50.3437224
  44.3726924  19.4763143  49.2906749  45.2379921  19.2805952  48.9312638
  44.4404433  19.2473495  50.2176105  51.0368820  27.5939078  47.4687492
  51.5500702  28.2269070  47.9709202  51.6870044  26.9940273  47.1030852
  44.2811911  18.5806600  45.3898185  43.6276323  18.2655617  44.7654800
  44.2392385  17.9582340  46.1158008  50.8475163  16.2813317  47.4209071
  51.1534040  15.4210681  47.1334986  51.5727768  16.8730938  47.2208065
  54.4129931  30.8480958  50.2351136  54.8466438  30.7556247  51.0834190
  55.1261512  30.8238458  49.5971152  55.2745481  30.8904658  52.7684021
  55.4681371  31.7950469  53.0143296  55.1746099  30.4312077  53.6022606
  46.9281792  20.7762549  55.2674348  46.2809707  21.4752499  55.1738825
  47.6982807  21.2098693  55.6350597  50.3360589  31.0411401  58.3424902
  50.1846096  30.8121953  57.4254985  50.3265269  31.9982002  58.3556247
  52.0452796  34.0730524  56.4201384  51.9865342  33.3889744  55.7531967
  52.4472314  34.8149514  55.9682010  52.0470203  32.0370108  54.6515363
  51.1596982  31.6996029  54.7741762  52.6168754  31.3053139  54.8884129
  56.5287544  27.4478325  49.4131925  56.5177420  28.3303040  49.0425858
  55.6604923  27.0949876  49.2186462  53.1460119  26.3426966  45.8802091
  53.6120571  27.1754957  45.8062394  53.5967619  25.8771947  46.5847349
  51.1176781  18.7107553  49.9192992  50.2039861  18.9411780  50.0875199
  51.5469883  18.7945997  50.7707025  50.8883240  26.8997445  52.4192886
  50.2354690  27.1473352  51.7645339  51.2663620  26.0861583  52.0855364
  50.5304470  33.7745441  58.9965194  51.0744374  34.3875399  58.5020149
  49.9491315  34.3325019  59.5132207  45.0965482  18.6132325  51.7175007
  45.9191551  18.1392804  51.5953897  45.3403545  19.3922809  52.2173693
  44.4800443  22.2953994  49.5747875  44.4662012  21.3995087  49.2380173
  45.1972871  22.3024658  50.2086161  46.7528530  18.8623285  47.9802165
  46.7750226  18.9262618  47.0254145  47.1696589  18.0227793  48.1742671
  57.1312154  28.5978544  46.0181388  57.5743300  27.8485869  45.6200511
  56.2538664  28.5888681  45.6355120  45.8259407  36.5142665  55.1565194
  46.1346533  36.2691812  56.0287893  46.6234889  36.7189303  54.6684064
  53.8533264  33.2341495  58.3326515  53.0628808  33.2165634  57.7931015
  53.6166619  33.7729789  59.0875552  53.9731139  30.0833961  55.6459244
  54.0229144  29.9183969  56.5874766  53.8645063  29.2161220  55.2557124
  51.2634902  26.0664889  56.9618550  52.1644765  25.9271354  56.6702548
  51.3382876  26.2319344  57.9016728  55.4749336  32.5030903  55.8901265
  55.1834145  32.8660883  56.7264726  54.8621468  31.7897911  55.7114597
  56.6745019  30.0683783  48.4103835  57.5091910  30.5073587  48.5741396
  56.8104147  29.5922436  47.5912081  53.7236525  27.6263517  54.3581323
  54.1990646  27.8191164  53.5500175  52.8002090  27.6822703  54.1124707
  48.3016741  19.6611361  53.3237157  48.8198685  20.3972388  52.9983646
  47.9471874  19.9675354  54.1583916  48.5529335  16.0811644  48.8438054
  48.8331089  15.4134833  49.4698480  49.3379942  16.2740739  48.3312717
  52.4238194  24.5029278  52.5909629  53.3755616  24.6027375  52.6121853
  52.2541644  23.7107546  53.1007713  50.4452573  21.5884861  52.7769030
  49.8502505  21.8689873  52.0815518  50.1602270  22.0778762  53.5485771
  54.9026271  27.7235397  51.7051928  54.8702591  26.7851398  51.8911612
  55.5126895  27.8019434  50.9717753  55.0520760  24.5146441  51.7510212
  54.5359808  23.7304897  51.5640140  55.9360708  24.1865157  51.9156731
  52.7131487  18.2587456  47.7106024  52.5156308  17.9502544  48.5949356
  53.3231192  18.9849095  47.8403954  60.7202821  28.7851404  50.8457965
  61.4506210  28.5236692  51.4065669  60.1109767  28.0480126  50.8860033
  58.8018118  26.9259267  51.4432416  58.0751282  26.7915232  50.8348908
  58.3865405  27.2336095  52.2489134  46.6248295  30.6449196  59.2079789
  47.5451304  30.8227795  59.4019836  46.5897878  29.7005242  59.0559489
  48.4705133  18.1396363  45.4602556  49.0236172  18.5591817  46.1192579
  48.7075220  17.2132111  45.5025512  44.4938233  24.1283437  61.2405320
  44.3934959  25.0777794  61.1717411  44.2759775  23.8001676  60.3681390
  51.8483940  20.2496888  44.9681220  51.2682609  20.9081692  44.5859272
  51.5819873  19.4274233  44.5568637  50.2987507  19.6501946  47.1702540
  50.7987285  19.7618480  46.3616859  50.9423115  19.3462999  47.8103349
  44.3569503  27.5580576  60.0570381  43.8736584  28.3580936  60.2634270
  44.4430442  27.5688520  59.1037825  50.6308818  22.4096979  44.0237568
  49.7434673  22.6946629  43.8057763  51.0462807  22.2490742  43.1764845
  53.9823355  22.4343500  47.7391907  54.7583745  22.9239952  48.0116524
  53.2571489  22.8601554  48.1963777  56.4195913  23.1471119  48.7965848
  57.0140404  22.9066855  48.0859156  56.4922497  22.4278249  49.4239384
  54.4154648  23.7141246  45.0637978  54.1591582  23.3137882  45.8946185
  53.7907516  24.4285040  44.9388117  58.7266986  26.4537320  47.5709269
  58.1666544  26.5230509  48.3440831  58.1210489  26.2778304  46.8508765
  48.6530529  31.4205208  60.8593950  49.5221688  31.5945860  60.4980585
  48.1737280  32.2399624  60.7369680  44.6480747  18.6164405  41.1125706
  44.6359417  19.5606245  41.2693977  45.5404169  18.4334550  40.8185167
  48.4632866  15.2107181  45.3671643  47.6965262  14.6565668  45.5128325
  48.8743571  15.2829050  46.2285794  40.4674627  21.4991977  59.4576824
  41.3306089  21.1428782  59.6680148  39.8940038  21.1605872  60.1452228
  60.3123004  43.1293834  50.2639225  60.9501414  43.0100581  49.5602565
  60.1943847  44.0774678  50.3227177  57.1212711  43.0821262  50.2000750
  56.7831222  42.9662326  49.3121284  57.9902479  42.6812427  50.1801756
  52.9799526  44.9356738  46.1897641  52.4164391  44.8446675  45.4213928
  52.8651921  44.1156643  46.6700133  57.6032494  44.2356113  56.1586955
  57.5921134  43.8408912  55.2867459  57.7653133  43.5022186  56.7520727
  50.5263958  46.4307930  49.0281861  51.3185250  46.0898754  48.6128160
  50.7660608  46.5402905  49.9484014  58.5599085  48.6027706  41.5012105
  57.9087065  49.1881786  41.1146119  59.3543448  49.1333901  41.5607143
  52.4854712  45.6916843  41.8999240  53.2585588  45.1445830  41.7612116
  52.8380111  46.5561092  42.1113701  54.3239755  47.0193225  55.1066139
  54.0329621  47.9238856  54.9912805  54.9596739  47.0609753  55.8210209
  55.2495962  44.3970074  51.6967499  55.8459534  44.1726096  50.9824462
  55.3070933  43.6554819  52.2992947  59.8664273  40.8545287  47.3392433
  60.6527362  40.4364711  46.9882850  60.1302977  41.7591380  47.5074081
  60.0374350  46.2918138  42.0381090  59.4020183  46.3652764  42.7501994
  59.7071757  46.8811737  41.3600169  65.2672700  40.7920521  48.2425411
  65.9997872  40.2219737  48.4763241  64.5112056  40.4042121  48.6831917
  54.5417279  43.7537615  41.7342065  54.4253537  43.0782518  42.4023149
  54.6519539  43.2669989  40.9174218  56.8848820  43.2147762  45.4388754
  56.5207027  42.6878383  46.1501675  57.7415936  42.8246231  45.2655239
  62.7898120  34.5042095  52.7020020  62.4581445  35.3737506  52.4781235
  62.1943734  34.1878379  53.3814050  56.5254307  38.2437662  40.4350102
  56.6928709  39.1117898  40.8020573  56.3351476  38.4064944  39.5111392
  59.2829640  46.7054641  52.1015933  58.9830363  47.6079680  51.9931740
  58.9380699  46.4386824  52.9537086  52.7342121  43.1568438  48.1352637
  51.8092618  43.0244652  48.3430329  52.9826535  43.9362657  48.6322580
  62.6826784  39.2237181  49.7813370  61.7743661  39.1552589  49.4872131
  62.6314379  39.7009126  50.6095196  56.5043528  40.6995319  41.4196769
  56.3843153  41.1452370  42.2582250  55.8096116  41.0480637  40.8610307
  50.0950932  42.8001711  48.9696426  50.2243314  43.0536190  49.8835838
  49.4148384  43.3929419  48.6501081  54.2650420  53.4698961  45.0686900
  54.1874449  54.4206786  45.1475381  53.6612063  53.1244834  45.7261827
  56.7567649  40.6426827  57.7248267  55.9800984  41.2020747  57.7151132
  57.3958213  41.1283610  58.2463138  64.5488430  37.4253619  51.5591244
  63.9062810  37.7186152  50.9131039  64.0443359  37.3106540  52.3644441
  62.2028594  41.1716793  42.2477103  63.1146450  41.4044179  42.0724801
  61.6938241  41.7553837  41.6852182  55.0114022  43.4512280  57.2866234
  55.7528706  43.9897324  57.0101058  54.3051007  44.0778569  57.4437786
  60.4869361  45.5941420  55.8838396  60.8952717  45.1523831  55.1393028
  59.7646623  45.0194048  56.1372589  56.8400431  40.5314027  53.2571953
  57.6861627  40.9553441  53.4006602  56.7799069  39.8747651  53.9510516
  60.8098176  46.1542611  49.6390685  60.1807038  46.3188325  48.9366753
  60.4223838  46.5684221  50.4101649  64.6887408  47.0897049  46.9935049
  64.0038446  47.4695950  46.4432082  64.7731257  47.6992375  47.7266996
  59.9899877  38.1918395  54.9153126  59.7460809  38.9460456  54.3787402
  60.2659807  38.5703743  55.7500374  61.9438340  44.7357008  53.5930392
  62.1555235  45.3788768  52.9164773  61.8968088  43.9019324  53.1252322
  59.5464569  37.3474828  50.4966964  58.6849048  37.6456082  50.7883702
  59.5727003  37.5645227  49.5647997  56.3626138  45.8917019  46.9040770
  56.8264483  46.1704722  46.1145392  56.0982936  44.9900464  46.7213861
  53.2550219  45.4388501  49.8420533  53.8251576  45.8675769  49.2038018
  53.8458331  45.1571085  50.5404719  55.2995024  42.0140171  43.7130335
  56.0019067  42.4661215  44.1804261  54.9675652  41.3723990  44.3410228
  53.7475386  40.6051928  58.0881544  53.1174046  41.2868209  58.3216941
  53.6411473  40.4935010  57.1434683  63.0584167  47.6128963  51.7652749
  63.8801611  47.2109151  51.4835431  63.0546570  47.5097197  52.7168865
  56.8240771  47.1613007  53.9213460  56.8885203  47.6233414  54.7571632
  56.1151695  46.5310371  54.0495770  56.5388789  48.8281114  43.7892440
  56.4034463  49.6732650  44.2177288  57.0798601  49.0300392  43.0258374
  53.0256128  34.9072694  60.4506795  52.6323074  34.3538892  61.1254440
  53.8422269  35.2183272  60.8413313  51.8013071  49.4622308  46.4443118
  51.9779699  50.3840273  46.2564102  52.5969904  49.1480728  46.8737498
  55.9424089  36.3230573  58.0427052  56.6833803  36.9237726  57.9631514
  56.1742012  35.5808211  57.4845095  51.0865427  41.5086940  56.3205282
  50.9718942  40.6072197  56.6212381  50.2309945  41.7550637  55.9690098
  58.1657265  49.4504681  57.9192782  57.7221119  48.6641059  57.6013687
  58.8274479  49.6383831  57.2536673  52.9244386  50.9800482  52.4453461
  53.4751811  50.8517546  51.6730455  52.0855862  51.2795371  52.0948354
  60.2638503  49.7307480  55.9474184  60.2456978  50.5516362  55.4554453
  61.1858423  49.6061556  56.1724325  56.7211557  47.2451610  56.7897692
  57.2539894  46.4839898  56.5597000  56.1925638  46.9525262  57.5321846
  59.8881252  32.3511676  52.3191334  59.5445522  33.2413318  52.2430444
  60.2560215  32.1613334  51.4560919  59.8531535  42.3420287  40.8263769
  59.3378158  43.1124892  41.0652156  59.5808843  41.6685423  41.4496830
  57.4378646  37.1869988  45.8849007  56.5820242  36.7976838  45.7054646
  57.8505598  37.2661949  45.0248793  58.9677793  34.7216331  50.2840567
  58.4642588  34.6846466  49.4708372  59.2608399  35.6309074  50.3437224
  55.2120678  34.8055061  49.2906749  56.0773675  34.6097869  48.9312638
  55.2798187  34.5765413  50.2176105  64.8265809  45.0952642  42.7616942
  64.0495252  44.7563801  42.3172104  65.5057290  45.1005265  42.0871907
  59.6417838  40.2147379  42.6523550  59.3367974  40.5293528  43.5033693
  60.5948280  40.2928799  42.6950883  58.0864270  46.3737602  44.3016504
  57.5585631  45.6390362  43.9889741  57.5851773  47.1512279  44.0556472
  63.0657116  44.5686623  49.4183550  62.4080790  45.2585884  49.5063679
  63.8697515  44.9583055  49.7617537  61.8762575  42.9230996  47.4687492
  62.3894456  43.5560987  47.9709202  62.5263799  42.3232191  47.1030852
  55.1205665  33.9098518  45.3898185  54.4670078  33.5947535  44.7654800
  55.0786139  33.2874258  46.1158008  59.1384949  52.9015320  40.2248163
  58.4646648  53.2047017  40.8333121  59.5250771  53.7044400  39.8753620
  58.3543406  40.3980451  49.7145833  57.4365967  40.6195398  49.5567521
  58.7703549  40.4726762  48.8557540  59.1378453  41.7971867  44.8448513
  59.8850272  42.3093264  44.5355635  59.4070043  41.4755920  45.7052906
  57.4105104  44.2930408  41.8275467  56.5016323  44.0089440  41.9247937
  57.4400187  44.7129486  40.9678774  62.6424371  47.9036997  45.5966635
  62.1886698  47.0627907  45.6531825  62.0118338  48.5398395  45.9341415
  61.5857291  38.8328983  46.8267302  60.8480047  38.3206369  47.1577545
  61.8384064  38.3929365  46.0150579  61.0857310  49.7413494  46.5316453
  61.3780285  50.3018551  45.8128818  61.5955931  50.0342055  47.2869612
  61.6868918  31.6105235  47.4209071  61.9927795  30.7502599  47.1334986
  62.4121523  32.2022855  47.2208065  55.9589998  41.9059028  47.9285262
  56.0138607  40.9532865  47.8527739  55.1481200  42.0618467  48.4126561
  57.1081191  45.8339151  39.1663546  56.6700621  45.1175010  38.7069183
  57.8491632  46.0615266  38.6048637  53.8982357  40.5236088  45.6875641
  53.0850223  40.8230258  46.0940833  54.3941352  40.1291777  46.4050124
  56.0490935  50.5193845  47.6209906  56.0067114  50.7454691  46.6918438
  56.9653634  50.2857219  47.7695707  59.4956569  40.9877912  54.5190535
  59.8505957  41.2149386  55.3785001  60.1428700  41.3196289  53.8967790
  65.2254306  44.1096348  45.2239864  65.0872205  44.2997944  44.2961053
  64.8690525  44.8715731  45.6807915  65.2523686  46.1772875  50.2351136
  65.6860192  46.0848164  51.0834190  65.9655266  46.1530376  49.5971152
  54.1656736  47.3956874  47.4171869  54.9597335  46.9007194  47.2154444
  53.4548429  46.8674737  47.0539574  58.9851581  49.7774969  51.7684236
  59.0388603  50.3465906  52.5361952  58.1166362  49.9476854  51.4038273
  51.8649974  39.4792526  53.2508688  52.5373027  39.2709888  52.6021337
  51.0379761  39.2814612  52.8113920  66.1139235  46.2196576  52.7684021
  66.3075125  47.1242386  53.0143296  66.0139853  45.7603995  53.6022606
  57.7675546  36.1054467  55.2674348  57.1203461  36.8044416  55.1738825
  58.5376561  36.5390610  55.6350597  61.1754344  46.3703319  58.3424902
  61.0239850  46.1413870  57.4254985  61.1659023  47.3273920  58.3556247
  57.9439680  43.9435231  53.3271168  58.8731740  44.0946391  53.1540136
  57.5230710  44.0319252  52.4719815  56.7428012  47.9685896  51.0969706
  56.6039098  47.6004680  51.9695644  55.9542608  48.4833535  50.9253664
  57.3376164  53.0694992  42.4395242  57.5127920  52.5983036  43.2540865
  56.6508952  53.6960759  42.6676503  58.2933227  47.3467499  48.4858544
  57.9583060  47.3068269  49.3816193  57.7937173  46.6812214  48.0128954
  52.2677471  42.7535129  54.0111125  52.1297269  42.0215367  54.6122664
  53.1782395  42.6644029  53.7295313  61.2292419  44.6923533  38.7595603
  60.6121590  43.9670361  38.6628656  60.7608907  45.4532893  38.4162678
  54.8959772  42.4655088  53.4994804  55.6059390  41.8248280  53.4581423
  54.8529080  42.7167983  54.4220985  62.8846551  49.4022441  56.4201384
  62.8259097  48.7181661  55.7531967  63.2866069  50.1441431  55.9682010
  53.6088706  39.4520306  55.3190444  53.0726063  39.0011044  55.9712040
  53.0205414  39.5866215  54.5760908  51.9037249  56.2184355  49.2135103
  52.1433848  56.8502879  49.8914121  51.0606446  55.8672395  49.5000462
  62.8863958  47.3662025  54.6515363  61.9990737  47.0287947  54.7741762
  63.4562509  46.6345056  54.8884129  56.4165111  52.0263478  51.6176606
  56.3435283  52.8318449  52.1295911  55.9742504  52.2255443  50.7924628
  56.2054891  51.2635248  45.1279428  55.4222413  51.8056928  45.2217653
  56.9047636  51.7809227  45.5273669  59.5151541  37.0729877  47.7713633
  60.0120241  36.3199839  47.4514704  58.7438523  37.1094194  47.2056843
  67.3681298  42.7770243  49.4131925  67.3571175  43.6594958  49.0425858
  66.4998678  42.4241793  49.2186462  58.8763795  51.9250312  53.7734765
  59.5891767  52.5597776  53.7010667  58.3853823  52.0214178  52.9574767
  60.5981322  45.8301564  45.3452057  59.6637600  45.9503027  45.1756761
  60.7757990  44.9274031  45.0812067  56.0986510  39.2147260  47.4985318
  55.7284297  38.6618300  48.1866224  56.5945602  38.6105393  46.9460318
  63.9853873  41.6718884  45.8802091  64.4514325  42.5046875  45.8062394
  64.4361374  41.2063865  46.5847349  53.9275708  49.6744755  54.5940336
  54.6285168  50.3081238  54.7469730  53.4570823  50.0159487  53.8335975
  62.0530104  48.0162705  42.8788243  62.3289948  47.9019299  43.7882117
  61.1834603  47.6180190  42.8400416  61.9570536  34.0399471  49.9192992
  61.0433616  34.2703697  50.0875199  62.3863637  34.1237915  50.7707025
  61.7276994  42.2289362  52.4192886  61.0748445  42.4765270  51.7645339
  62.1057374  41.4153501  52.0855364  58.6884168  52.2649056  46.5221057
  58.8706563  51.4470712  46.9848809  59.5117154  52.4816748  46.0845947
  59.0226334  51.1917241  43.7836105  59.5514100  50.6809695  43.1706267
  59.2854553  50.8759771  44.6481638  57.7764567  42.9709174  58.9058923
  57.1005204  42.8703303  59.5761299  58.5992201  42.8148387  59.3694921
  49.5243426  49.2081110  51.5271439  50.1096863  48.4624798  51.6599343
  49.3268265  49.5185067  52.4108103  52.3782082  52.2432357  46.5433881
  51.7092457  52.7278485  46.0597921  52.2394951  52.4901578  47.4577260
  56.5187350  54.2776101  53.1416539  57.0705658  54.4407722  53.9065625
  56.8593544  54.8680539  52.4696564  51.4951843  36.6251251  53.7438424
  51.5593170  37.4866082  53.3315822  51.4318964  36.0125252  53.0110783
  50.9704116  38.6974383  57.3911458  51.5976155  38.3151461  58.0048983
  50.1132035  38.4788585  57.7567151  61.3698225  49.1037359  58.9965194
  61.9138128  49.7167317  58.5020149  60.7885069  49.6616937  59.5132207
  59.6555737  52.2258077  50.1280222  59.5306877  51.4247816  49.6191167
  60.3134829  52.7204270  49.6394192  61.7190646  50.0267097  51.7559772
  60.7720981  49.9072448  51.6838098  62.0673419  49.1389595  51.8386033
  54.0790219  35.9161236  55.5798014  54.6024621  36.1623532  56.3424323
  53.8602552  36.7481270  55.1601151  58.7237079  49.8219813  47.9564124
  58.5762042  48.8936520  48.1371694  59.5490573  49.8439904  47.4721199
  62.3271201  50.6448372  49.0428997  63.2517748  50.4391233  48.9053448
  62.1586504  50.3964773  49.9518338  55.2842764  36.8574931  53.2647684
  54.9439585  36.0582744  53.6668364  54.5781771  37.1576641  52.6924517
  55.9359236  33.9424243  51.7175007  56.7585305  33.4684721  51.5953897
  56.1797300  34.7214727  52.2173693  54.5767471  36.9712501  42.0137909
  55.2975833  37.3493754  41.5101626  53.9532775  37.6901378  42.1172887
  58.7198593  37.6757650  42.9496241  58.9362208  38.5582288  42.6485069
  58.2392661  37.2843864  42.2201883  53.4597815  40.6343364  49.5266986
  53.3142396  40.9483667  50.4191267  52.9823018  41.2528264  48.9737884
  57.1720328  38.0583252  51.6201003  56.9138106  38.9800323  51.6185333
  56.6405369  37.6613686  52.3101467  62.1166517  51.1634039  44.3991088
  62.2903395  50.5980461  43.6464941  62.6095408  51.9634934  44.2170578
  54.7231094  36.5060292  44.8435445  54.8447005  35.5776938  45.0426333
  54.4333136  36.5198978  43.9313761  57.5922284  34.1915202  47.9802165
  57.6143981  34.2554535  47.0254145  58.0090343  33.3519711  48.1742671
  67.9705908  43.9270462  46.0181388  68.4137054  43.1777787  45.6200511
  67.0932419  43.9180598  45.6355120  63.1041690  50.4800803  41.4987986
  63.7992594  51.1007496  41.7175301  63.4464840  49.6296155  41.7740364
  48.7209499  42.3018604  55.3584804  47.9791235  42.4501240  55.9449434
  48.4002243  42.5626870  54.4951553  65.0033113  47.9300509  43.0275317
  65.5284437  48.2687782  42.3024637  64.9155465  46.9947524  42.8438452
  56.6653162  51.8434583  55.1565194  56.9740288  51.5983729  56.0287893
  57.4628644  52.0481221  54.6684064  56.6873774  53.9972492  47.3870570
  56.2478764  53.5048871  48.0803427  57.4381891  53.4545460  47.1462646
  54.1347646  49.5410501  49.4592872  53.5127655  48.8781206  49.1595100
  54.8052513  49.5671633  48.7766520  54.2072173  38.0192289  59.0525378
  54.2560329  38.8954412  58.6703148  54.7494687  37.4769682  58.4797021
  64.6927019  48.5633413  58.3326515  63.9022563  48.5457551  57.7931015
  64.4560373  49.1021706  59.0875552  64.8124894  45.4125879  55.6459244
  64.8622899  45.2475886  56.5874766  64.7038817  44.5453138  55.2557124
  53.6961153  48.0914425  42.9351333  53.8449273  48.7749889  42.2818005
  54.5027596  48.0719515  43.4500788  62.1028656  41.3956807  56.9618550
  63.0038519  41.2563272  56.6702548  62.1776631  41.5611262  57.9016728
  56.4371462  38.7723662  55.8071737  55.5674771  39.0657228  55.5354325
  56.6730942  39.3564107  56.5279000  66.3143091  47.8322820  55.8901265
  66.0227899  48.1952801  56.7264726  65.7015222  47.1189829  55.7114597
  67.5138773  45.3975700  48.4103835  68.3485664  45.8365504  48.5741396
  67.6497902  44.9214353  47.5912081  64.5630279  42.9555435  54.3581323
  65.0384401  43.1483081  53.5500175  63.6395844  43.0114621  54.1124707
  51.4513786  44.1179602  43.9412401  51.2059828  43.2141932  44.1392612
  51.6209700  44.1196753  42.9991879  59.1410495  34.9903279  53.3237157
  59.6592439  35.7264306  52.9983646  58.7865628  35.2967272  54.1583916
  59.3923090  31.4103561  48.8438054  59.6724843  30.7426750  49.4698480
  60.1773697  31.6032657  48.3312717  57.1956558  50.5862555  40.4063080
  56.6230525  51.2052742  39.9533552  57.7689352  51.1361917  40.9403002
  63.2631948  39.8321195  52.5909629  64.2149371  39.9319293  52.6121853
  63.0935398  39.0399464  53.1007713  61.2846327  36.9176778  52.7769030
  60.6896260  37.1981791  52.0815518  60.9996024  37.4070679  53.5485771
  60.4153818  50.8699705  41.5371662  61.3484491  50.8045267  41.7404538
  60.3277031  51.7055972  41.0786195  63.0441835  50.1865576  38.4975610
  62.9655466  49.8525439  39.3911368  63.8651501  50.6787343  38.4967082
  65.7420026  43.0527315  51.7051928  65.7096346  42.1143316  51.8911612
  66.3520649  43.1311352  50.9717753  57.5803357  41.9223368  37.7479132
  58.5262461  41.7929576  37.8167550  57.2017602  41.1838030  38.2248561
  65.8914514  39.8438358  51.7510212  65.3753563  39.0596815  51.5640140
  66.7754463  39.5157075  51.9156731  63.5525241  33.5879374  47.7106024
  63.3550062  33.2794462  48.5949356  64.1624947  34.3141013  47.8403954
  69.6411873  42.2551184  51.4432416  68.9145036  42.1207149  50.8348908
  69.2259160  42.5628013  52.2489134  57.4642049  45.9741114  59.2079789
  58.3845059  46.1519713  59.4019836  57.4291632  45.0297159  59.0559489
  57.3808340  34.3910234  43.8378259  56.5709068  34.0457319  44.2133505
  58.0692756  34.0817778  44.4265871  59.3098888  33.4688281  45.4602556
  59.8629926  33.8883734  46.1192579  59.5468974  32.5424029  45.5025512
  55.3331987  39.4575354  61.2405320  55.2328714  40.4069711  61.1717411
  55.1153529  39.1293593  60.3681390  46.5512474  44.7882619  50.1026186
  45.8575946  44.3736572  49.5896140  47.2985465  44.8303156  49.5059605
  62.6877695  35.5788806  44.9681220  62.1076364  36.2373610  44.5859272
  62.4213628  34.7566151  44.5568637  61.1381261  34.9793864  47.1702540
  61.6381040  35.0910398  46.3616859  61.7816869  34.6754916  47.8103349
  55.1963257  42.8872493  60.0570381  54.7130339  43.6872853  60.2634270
  55.2824196  42.8980438  59.1037825  51.1236595  46.7777028  52.0938815
  52.0779848  46.7460970  52.0268747  50.9249118  46.3167652  52.9089041
  51.7135977  45.3478144  54.6609613  52.5328866  45.8422223  54.6844450
  51.9872784  44.4310112  54.6327180  61.4702573  37.7388896  44.0237568
  60.5828428  38.0238547  43.8057763  61.8856562  37.5782660  43.1764845
  64.8217109  37.7635417  47.7391907  65.5977499  38.2531870  48.0116524
  64.0965243  38.1893471  48.1963777  67.2589668  38.4763036  48.7965848
  67.8534158  38.2358772  48.0859156  67.3316251  37.7570167  49.4239384
  49.4786823  52.3196647  49.1109013  49.3441291  51.5597048  48.5447011
  49.0618886  53.0437547  48.6437802  60.6145786  47.5033571  38.1185588
  61.3181636  47.7083573  38.7343244  59.8908435  48.0710333  38.3834672
  61.4443597  43.2543432  44.2387858  61.3878798  43.7111984  43.3995491
  61.9971939  42.4934117  44.0610701  65.2548403  39.0433164  45.0637978
  64.9985337  38.6429800  45.8946185  64.6301271  39.7576958  44.9388117
  69.5660740  41.7829237  47.5709269  69.0060298  41.8522427  48.3440831
  68.9604244  41.6070222  46.8508765  52.6355949  53.2165964  49.3227455
  52.5188333  54.1611397  49.2206146  51.8148396  52.9139526  49.7113255
  62.5232484  47.9416100  40.1684048  63.3578088  47.5097299  39.9861523
  62.3616827  47.7698114  41.0960943  62.1778376  44.4448213  41.5340387
  62.1227180  44.2792485  40.5928832  61.5524431  45.1524246  41.6902577
  46.9670891  39.6816278  55.3601810  47.6129755  39.1715232  55.8489035
  46.7588042  40.4184959  55.9345235  59.4924283  46.7497125  60.8593950
  60.3615443  46.9237778  60.4980585  59.0131035  47.5691542  60.7369680
  55.4874501  33.9456322  41.1125706  55.4753171  34.8898162  41.2693977
  56.3797923  33.7626468  40.8185167  53.6610463  53.8694226  52.5383384
  54.5637710  53.9017837  52.8549879  53.4347833  52.9394677  52.5529720
  55.4164065  52.6225213  49.1993463  54.4659696  52.6227074  49.0857835
  55.7196552  51.8757947  48.6829497  59.3026621  30.5399099  45.3671643
  58.5359017  29.9857586  45.5128325  59.7137326  30.6120968  46.2285794
  51.3068382  36.8283895  59.4576824  52.1699844  36.4720700  59.6680148
  50.7333793  36.4897790  60.1452228  67.9606465  58.4113179  50.2000750
  67.6224977  58.2954244  49.3121284  68.8296233  58.0104344  50.1801756
  63.8193281  60.2648656  46.1897641  63.2558146  60.1738593  45.4213928
  63.7045676  59.4448560  46.6700133  61.3657713  61.7599847  49.0281861
  62.1579005  61.4190672  48.6128160  61.6054363  61.8694822  49.9484014
  63.3248467  61.0208761  41.8999240  64.0979343  60.4737748  41.7612116
  63.6773866  61.8853010  42.1113701  66.0889716  59.7261991  51.6967499
  66.6853288  59.5018014  50.9824462  66.1464688  58.9846737  52.2992947
  65.6614745  57.1801427  39.5317690  65.9140265  56.6582948  38.7701153
  64.7239304  57.0167572  39.6344373  65.3811033  59.0829533  41.7342065
  65.2647291  58.4074436  42.4023149  65.4913293  58.5961907  40.9174218
  67.7242574  58.5439680  45.4388754  67.3600781  58.0170301  46.1501675
  68.5809690  58.1538149  45.2655239  67.3648061  53.5729580  40.4350102
  67.5322464  54.4409816  40.8020573  67.1745230  53.7356861  39.5111392
  63.5735876  58.4860355  48.1352637  62.6486372  58.3536569  48.3430329
  63.8220289  59.2654575  48.6322580  67.3437282  56.0287237  41.4196769
  67.2236907  56.4744288  42.2582250  66.6489870  56.3772555  40.8610307
  60.9344687  58.1293629  48.9696426  61.0637068  58.3828108  49.8835838
  60.2542138  58.7221337  48.6501081  70.3858323  52.6766746  50.4966964
  69.5242802  52.9748000  50.7883702  70.4120758  52.8937145  49.5647997
  67.2019892  61.2208937  46.9040770  67.6658238  61.4996640  46.1145392
  66.9376691  60.3192381  46.7213861  64.0943973  60.7680418  49.8420533
  64.6645331  61.1967687  49.2038018  64.6852085  60.4863003  50.5404719
  66.1388778  57.3432089  43.7130335  66.8412822  57.7953133  44.1804261
  65.8069407  56.7015908  44.3410228  59.8814112  55.6015642  49.0147469
  59.0913166  55.8573170  48.5387579  60.3725360  56.4163980  49.1199509
  61.8328858  55.9660221  45.9730945  61.0360021  56.0778915  46.4914441
  61.6054450  56.3046873  45.1071836  58.1651815  55.8546132  51.4462459
  58.4159854  56.7393142  51.7120035  58.7011364  55.6750734  50.6737551
  60.8311940  61.6748470  44.3620365  61.3436461  62.4691720  44.5125930
  61.4834653  60.9774760  44.2953967  62.6406825  64.7914226  46.4443118
  62.8173454  65.7132191  46.2564102  63.4363659  64.4772645  46.8737498
  58.7960857  60.0037124  45.1379936  59.6336079  60.4134132  44.9213644
  58.9739125  59.0636566  45.1080130  70.6925289  57.6712205  40.8263769
  70.1771913  58.4416809  41.0652156  70.4202598  56.9977341  41.4496830
  68.2772400  52.5161906  45.8849007  67.4213997  52.1268756  45.7054646
  68.6899352  52.5953866  45.0248793  69.8071547  50.0508249  50.2840567
  69.3036343  50.0138384  49.4708372  70.1002154  50.9600991  50.3437224
  66.0514433  50.1346978  49.2906749  66.9167430  49.9389787  48.9312638
  66.1191942  49.9057330  50.2176105  63.6576752  52.3649186  46.6623115
  64.2320504  52.1424368  45.9296308  64.2447734  52.4337881  47.4151717
  63.9846339  54.3953647  40.6819001  63.1483651  54.7328334  41.0028275
  63.8451109  54.2602627  39.7446138  65.9599420  49.2390435  45.3898185
  65.3063832  48.9239452  44.7654800  65.9179894  48.6166176  46.1158008
  67.0710625  59.5209730  37.3051477  66.1637686  59.2898984  37.5042626
  67.5681657  58.7247350  37.4925459  69.1937160  55.7272369  49.7145833
  68.2759721  55.9487316  49.5567521  69.6097304  55.8018679  48.8557540
  69.9772208  57.1263785  44.8448513  70.7244027  57.6385182  44.5355635
  70.2463797  56.8047837  45.7052906  68.2498858  59.6222325  41.8275467
  67.3410077  59.3381358  41.9247937  68.2793942  60.0421404  40.9678774
  58.8187028  57.3427839  45.8090669  58.6211428  56.7497200  45.0841736
  58.2633692  57.0380050  46.5266608  66.7983752  57.2350946  47.9285262
  66.8532362  56.2824782  47.8527739  65.9874954  57.3910385  48.4126561
  67.9474946  61.1631069  39.1663546  67.5094376  60.4466928  38.7069183
  68.6885387  61.3907184  38.6048637  64.7376112  55.8528006  45.6875641
  63.9243978  56.1522176  46.0940833  65.2335106  55.4583694  46.4050124
  64.2290187  53.4246361  51.3036876  64.8689566  53.2835120  50.6059840
  63.3967717  53.1380875  50.9275478  65.0050491  62.7248792  47.4171869
  65.7991089  62.2299112  47.2154444  64.2942183  62.1966655  47.0539574
  61.3133254  56.8691873  43.4931621  60.3830842  56.8076329  43.7101584
  61.4090726  56.3467826  42.6968263  61.2318803  53.3946686  46.0809863
  61.4925620  54.3092019  45.9719024  62.0535975  52.9271129  46.2306476
  62.7043728  54.8084443  53.2508688  63.3766782  54.6001805  52.6021337
  61.8773515  54.6106529  52.8113920  63.1071226  58.0827046  54.0111125
  62.9691024  57.3507285  54.6122664  64.0176149  57.9935946  53.7295313
  64.4482460  54.7812223  55.3190444  63.9119817  54.3302962  55.9712040
  63.8599169  54.9158132  54.5760908  63.8584719  54.2400875  37.8816908
  62.9814186  54.1189676  37.5179154  64.3342472  53.4486953  37.6295796
  55.3786859  59.0278035  47.9758415  56.0657899  58.7139765  47.3879430
  55.2234988  59.9319399  47.7025666  60.1821582  53.9168231  52.4043438
  60.0979770  53.3093901  51.6693848  59.3604288  54.4077249  52.4052935
  70.3545295  52.4021795  47.7713633  70.8513995  51.6491757  47.4514704
  69.5832277  52.4386111  47.2056843  66.9380264  54.5439178  47.4985318
  66.5678052  53.9910218  48.1866224  67.4339357  53.9397311  46.9460318
  54.9554836  57.1078628  50.2475882  54.9938935  56.5742219  51.0413000
  54.4495128  56.5813833  49.6286859  62.3345598  51.9543168  53.7438424
  62.3986924  52.8157999  53.3315822  62.2712718  51.3417170  53.0110783
  58.5863413  55.8342730  43.3229813  58.8816854  54.9253409  43.2696867
  57.6851449  55.8130470  43.0010816  62.1157660  53.9098727  49.3057362
  61.3944246  54.5234694  49.1664835  62.9050916  54.4456492  49.2274008
  64.9183974  51.2453153  55.5798014  65.4418376  51.4915450  56.3424323
  64.6996307  52.0773188  55.1601151  60.3151255  53.5156828  43.4469138
  59.9863961  52.6354207  43.2644244  60.6690625  53.4604496  44.3345528
  63.4293078  53.8029798  43.8144616  63.7689150  54.3315719  43.0923224
  63.8765198  54.1410204  44.5903183  66.1236519  52.1866848  53.2647684
  65.7833339  51.3874661  53.6668364  65.4175525  52.4868559  52.6924517
  66.7752991  49.2716161  51.7175007  67.5979060  48.7976639  51.5953897
  67.0191054  50.0506644  52.2173693  65.4161225  52.3004419  42.0137909
  66.1369588  52.6785672  41.5101626  64.7926529  53.0193296  42.1172887
  69.5592348  53.0049568  42.9496241  69.7755962  53.8874206  42.6485069
  69.0786415  52.6135782  42.2201883  64.2991569  55.9635281  49.5266986
  64.1536150  56.2775584  50.4191267  63.8216773  56.5820182  48.9737884
  66.1587952  52.9537829  49.5747875  66.1449521  52.0578923  49.2380173
  66.8760380  52.9608493  50.2086161  68.0114083  53.3875170  51.6201003
  67.7531861  54.3092240  51.6185333  67.4799123  52.9905604  52.3101467
  58.7737231  58.5040626  52.4654647  58.2290700  59.2800434  52.5974921
  59.6516581  58.8511430  52.3073768  65.5624848  51.8352210  44.8435445
  65.6840759  50.9068856  45.0426333  65.2726891  51.8490896  43.9313761
  68.4316039  49.5207120  47.9802165  68.4537735  49.5846453  47.0254145
  68.8484098  48.6811629  48.1742671  59.5603253  57.6310522  55.3584804
  58.8184989  57.7793157  55.9449434  59.2395998  57.8918788  54.4951553
  60.0059867  65.5175951  47.3895198  60.8317887  65.2179723  47.0093842
  59.6553919  64.7483573  47.8384987  58.2068472  63.4362277  48.3484132
  57.3700380  63.0084452  48.1668133  58.1792118  63.6294721  49.2854923
  64.5354907  63.4206342  42.9351333  64.6843027  64.1041807  42.2818005
  65.3421351  63.4011432  43.4500788  62.2907540  59.4471520  43.9412401
  62.0453582  58.5433850  44.1392612  62.4603455  59.4488670  42.9991879
  69.9804250  50.3195196  53.3237157  70.4986194  51.0556223  52.9983646
  69.6259383  50.6259190  54.1583916  61.5603188  55.1799878  41.4398563
  60.8672433  55.2544233  40.7838599  61.3154940  54.4160221  41.9620080
  68.4197111  57.2515286  37.7479132  69.3656216  57.1221494  37.8167550
  68.0411356  56.5129947  38.2248561  66.6040028  55.1765262  37.6834018
  65.6971484  54.8798375  37.7596731  66.8816009  54.8795080  36.8168304
  57.5217969  56.4971625  48.1333064  57.2020753  55.6436934  47.8407438
  56.9751397  56.7120203  48.8891031  61.2997876  59.2134066  51.8502571
  61.5183886  60.1451174  51.8690604  61.7123650  58.8542041  52.6357374
  68.2202094  49.7202152  43.8378259  67.4102822  49.3749237  44.2133505
  68.9086511  49.4109695  44.4265871  70.1492642  48.7980198  45.4602556
  70.7023681  49.2175652  46.1192579  70.3862729  47.8715947  45.5025512
  65.3738813  52.0352197  37.8245997  66.2357977  52.3607095  38.0841814
  65.5589157  51.2483693  37.3119063  57.3906229  60.1174537  50.1026186
  56.6969700  59.7028490  49.5896140  58.1379220  60.1595073  49.5059605
  59.3042971  60.0492791  47.9792201  59.2813659  60.1480478  47.0274084
  59.6143608  60.8957941  48.3009367  61.9630349  62.1068946  52.0938815
  62.9173603  62.0752888  52.0268747  61.7642873  61.6459569  52.9089041
  57.8064645  55.0108196  55.3601810  58.4523509  54.5007150  55.8489035
  57.5981797  55.7476877  55.9345235  66.3268256  49.2748240  41.1125706
  66.3146926  50.2190080  41.2693977  67.2191678  49.0918386  40.8185167
  70.1420375  45.8691017  45.3671643  69.3752771  45.3149503  45.5128325
  70.5531080  45.9412886  46.2285794  32.5862912  -0.1822752  31.7932207
  32.5086942   0.7685073  31.8720688  31.9824556  -0.5276879  32.4507133
  31.2456878  -2.6721231  39.1698767  31.7964304  -2.8004167  38.3975761
  30.4068354  -2.3726342  38.8193660  37.4597441  -0.7506393  26.9493470
  36.7859140  -0.4474696  27.5578428  37.8463263   0.0522687  26.5998927
  35.6588656  -0.5826720  29.1640549  35.8340412  -1.0538677  29.9786172
  34.9721444   0.0439046  29.3921810  30.2249742   2.5662642  35.9380409
  30.4646340   3.1981167  36.6159428  29.3818938   2.2150682  36.2245768
  34.7377604  -1.6258235  38.3421913  34.6647775  -0.8203264  38.8541218
  34.2954997  -1.4266269  37.5169935  30.6994574  -1.4089355  33.2679188
  30.0304949  -0.9243228  32.7843228  30.5607444  -1.1620135  34.1822566
  34.8399842   0.6254388  39.8661846  35.3918150   0.7886010  40.6310931
  35.1806036   1.2158826  39.1941871  35.0086266   0.3450779  34.1115877
  34.5691256  -0.1472842  34.8048734  35.7594383  -0.1976253  33.8707952
  27.4878605  -3.4637680  34.1140505  28.3136625  -3.7633908  33.7339149
  27.1372657  -4.2330057  34.5630294  27.7999316  -1.3325065  35.8354319
  27.6653784  -2.0924664  35.2692318  27.3831378  -0.6084165  35.3683108
  30.9568442  -0.4355748  36.0472762  30.8400826   0.5089684  35.9451452
  30.1360888  -0.7382187  36.4358561  31.9822956   0.2172514  39.2628691
  32.8850202   0.2496124  39.5795185  31.7560326  -0.7127035  39.2775026
  33.7376558  -1.0296500  35.9238769  32.7872189  -1.0294638  35.8103141
  34.0409044  -1.7763765  35.4074804  49.4729251   4.8064039  36.9884532
  50.1107661   4.6870786  36.2847872  49.3550094   5.7544882  37.0472484
  46.2818957   4.7591467  36.9246056  45.9437469   4.6432531  36.0366591
  47.1508726   4.3582632  36.9047062  42.1405773   6.6126943  32.9142947
  41.5770638   6.5216880  32.1459235  42.0258168   5.7926847  33.3945440
  46.7638740   5.9126318  42.8832262  46.7527381   5.5179117  42.0112765
  46.9259380   5.1792391  43.4766033  39.6870205   8.1078135  35.7527168
  40.4791497   7.7668959  35.3373467  39.9266855   8.2173110  36.6729321
  47.7205332  10.2797911  28.2257412  47.0693312  10.8651991  27.8391426
  48.5149695  10.8104106  28.2852450  41.6460959   7.3687048  28.6244546
  42.4191835   6.8216035  28.4857422  41.9986358   8.2331297  28.8359008
  43.4846002   8.6963430  41.8311446  43.1935868   9.6009061  41.7158112
  44.1202986   8.7379958  42.5455515  44.4102208   6.0740279  38.4212805
  45.0065781   5.8496301  37.7069768  44.4677180   5.3325024  39.0238253
  43.9827237   3.5279714  26.2562996  44.2352758   3.0061235  25.4946459
  43.0451796   3.3645859  26.3589680  49.1980597   7.9688343  28.7626396
  48.5626430   8.0422969  29.4747301  48.8678003   8.5581942  28.0845476
  43.7023526   5.4307820  28.4587371  43.5859784   4.7552723  29.1268456
  43.8125785   4.9440194  27.6419524  46.0455066   4.8917967  32.1634061
  45.6813274   4.3648588  32.8746982  46.9022182   4.5016436  31.9900546
  48.4435887   8.3824846  38.8261239  48.1436610   9.2849884  38.7177047
  48.0986946   8.1157029  39.6782392  41.8948368   4.8338643  34.8597944
  40.9698865   4.7014857  35.0675636  42.1432781   5.6132862  35.3567886
  45.6649774   2.3765524  28.1442076  45.5449400   2.8222575  28.9827556
  44.9702363   2.7250842  27.5855614  39.2557179   4.4771916  35.6941733
  39.3849560   4.7306395  36.6081145  38.5754630   5.0699624  35.3746388
  43.4256666  15.1469166  31.7932207  43.3480696  16.0976991  31.8720688
  42.8218310  14.8015039  32.4507133  45.9173896   2.3197031  44.4493574
  45.1407230   2.8790952  44.4396439  46.5564459   2.8053814  44.9708444
  44.1720269   5.1282485  44.0111541  44.9134953   5.6667529  43.7346365
  43.4657254   5.7548774  44.1683093  49.6475608   7.2711625  42.6083703
  50.0558964   6.8294036  41.8638335  48.9252870   6.6964253  42.8617895
  49.9704423   7.8312816  36.3635991  49.3413285   7.9958530  35.6612059
  49.5830085   8.2454425  37.1346955  53.8493655   8.7667254  33.7180355
  53.1644693   9.1466155  33.1677388  53.9337504   9.3762580  34.4512303
  51.1044586   6.4127213  40.3175699  51.3161482   7.0558973  39.6410080
  51.0574335   5.5789529  39.8497629  45.5232385   7.5687224  33.6286077
  45.9870730   7.8474927  32.8390699  45.2589183   6.6670669  33.4459167
  42.4156466   7.1158706  36.5665840  42.9857823   7.5445974  35.9283324
  43.0064578   6.8341290  37.2650025  44.4601271   3.6910376  30.4375642
  45.1625314   4.1431420  30.9049568  44.1281899   3.0494195  31.0655535
  42.9081632   2.2822133  44.8126851  42.2780293   2.9638414  45.0462248
  42.8017720   2.1705215  43.8679989  38.2026605   1.9493929  35.7392775
  37.4125659   2.2051458  35.2632886  38.6937852   2.7642267  35.8444816
  52.2190414   9.2899168  38.4898056  53.0407858   8.8879355  38.2080738
  52.2152817   9.1867402  39.4414172  40.1541350   2.3138508  32.6976252
  39.3572513   2.4257203  33.2159748  39.9266942   2.6525160  31.8317142
  45.9847018   8.8383211  40.6458767  46.0491450   9.3003619  41.4816938
  45.2757942   8.2080576  40.7741076  36.4864308   2.2024419  38.1707766
  36.7372346   3.0871429  38.4365342  37.0223856   2.0229021  37.3982858
  45.6995035  10.5051319  30.5137747  45.5640710  11.3502855  30.9422595
  46.2404848  10.7070597  29.7503681  39.1524433   8.0226757  31.0865672
  39.6648953   8.8170007  31.2371237  39.8047146   7.3253047  31.0199273
  40.9619317  11.1392513  33.1688425  41.1385946  12.0610478  32.9809409
  41.7576151  10.8250933  33.5982805  40.2471674   3.1857145  43.0450588
  40.1325189   2.2842402  43.3457687  39.3916192   3.4320842  42.6935405
  47.3263512  11.1274885  44.6438089  46.8827366  10.3411264  44.3258993
  47.9880725  11.3154036  43.9781980  42.0850633  12.6570687  39.1698767
  42.6358058  12.5287750  38.3975761  41.2462109  12.9565576  38.8193660
  49.4244750  11.4077685  42.6719490  49.4063225  12.2286566  42.1799759
  50.3464670  11.2831761  42.8969631  45.8817804   8.9221815  43.5142999
  46.4146141   8.1610103  43.2842307  45.3531885   8.6295467  44.2567153
  37.1173350   6.3515411  31.8625242  37.9548572   6.7612420  31.6458950
  37.2951617   5.4114853  31.8325436  49.0137782   4.0190492  27.5509075
  48.4984405   4.7895097  27.7897463  48.7415090   3.3455628  28.1742137
  53.9872056   6.7722847  29.4862249  53.2101499   6.4334006  29.0417411
  54.6663537   6.7775470  28.8117214  47.2470517   8.0507807  31.0261811
  46.7191878   7.3160567  30.7135048  46.7458019   8.8282484  30.7801779
  52.2263363   6.2456828  36.1428857  51.5687037   6.9356089  36.2308986
  53.0303762   6.6353260  36.4862843  51.0368821   4.6001201  34.1932799
  51.5500703   5.2331192  34.6954508  51.6870045   4.0002396  33.8276159
  42.3058831   0.7431935  27.4064307  41.4696144   1.0806621  27.7273582
  42.1663601   0.6080914  26.4691444  45.3923117   5.8688018  24.0296784
  44.4850179   5.6377271  24.2287933  45.8894149   5.0725637  24.2170765
  48.2991196  14.5785525  26.9493470  47.6252894  14.8817222  27.5578428
  48.6857018  15.3814605  26.5998927  48.2984700   3.4742072  31.5693819
  49.0456519   3.9863469  31.2600941  48.5676290   3.1526125  32.4298213
  46.5711350   5.9700613  28.5520774  45.6622570   5.6859645  28.6493243
  46.6006434   6.3899691  27.6924081  51.8030618   9.5807202  32.3211941
  51.3492945   8.7398112  32.3777132  51.1724584  10.2168600  32.6586721
  50.2463557  11.4183699  33.2561759  50.5386531  11.9788756  32.5374125
  50.7562178  11.7112260  34.0114919  37.1399521   3.6906127  32.5335976
  36.9423920   3.0975487  31.8087042  36.5846185   3.3858337  33.2511915
  45.1196244   3.5829233  34.6530569  45.1744854   2.6303070  34.5773046
  44.3087446   3.7388672  35.1371867  46.2687438   7.5109356  25.8908852
  45.8306868   6.7945215  25.4314490  47.0097879   7.7385471  25.3293944
  43.0588604   2.2006293  32.4120948  42.2456470   2.5000463  32.8186140
  43.5547598   1.8061982  33.1295430  45.2097182  12.1964050  34.3455213
  45.1673361  12.4224896  33.4163745  46.1259881  11.9627424  34.4941014
  54.3860553   5.7866553  31.9485171  54.2478451   5.9768149  31.0206360
  54.0296772   6.5485936  32.4053222  54.4129932   7.8543080  36.9596442
  54.8466439   7.7618369  37.8079496  55.1261513   7.8300581  36.3216458
  43.3262983   9.0727079  34.1417175  44.1203581   8.5777399  33.9399750
  42.6154675   8.5444942  33.7784881  48.1457827  11.4545174  38.4929543
  48.1994850  12.0236111  39.2607259  47.2772609  11.6247059  38.1283580
  39.6345746   3.2170161  30.2176928  38.7043334   3.1554616  30.4346890
  39.7303218   2.6946113  29.4213569  41.0256221   1.1562731  39.9753994
  41.6979274   0.9480093  39.3266643  40.1986007   0.9584817  39.5359227
  55.2745482   7.8966781  39.4929328  55.4681372   8.8012591  39.7388603
  55.1746100   7.4374200  40.3267913  50.3360591   8.0473524  45.0670208
  50.1846097   7.8184075  44.1500292  50.3265270   9.0044125  45.0801553
  47.1045927   5.6205436  40.0516475  48.0337987   5.7716596  39.8785442
  46.6836957   5.7089457  39.1965121  45.9034259   9.6456101  37.8215012
  45.7645345   9.2774885  38.6940951  45.1148855  10.1603740  37.6498970
  46.4982411  14.7465197  29.1640549  46.6734167  14.2753240  29.9786172
  45.8115199  15.3730963  29.3921810  47.4539474   9.0237703  35.2103850
  47.1189307   8.9838473  36.1061500  46.9543420   8.3582419  34.7374260
  41.4283718   4.4305334  40.7356431  41.2903516   3.6985572  41.3367970
  42.3388641   4.3414234  40.4540619  50.3898666   6.3693738  25.4840910
  49.7727836   5.6440566  25.3873963  49.9215154   7.1303098  25.1407984
  44.0566019   4.1425293  40.2240111  44.7665637   3.5018485  40.1826729
  44.0135327   4.3938188  41.1466292  52.0452797  11.0792646  43.1446690
  51.9865344  10.3951866  42.4777273  52.4472316  11.8211636  42.6927316
  42.7694953   1.1290511  42.0435751  42.2332310   0.6781249  42.6957347
  42.1811661   1.2636420  41.3006215  41.0643496  17.8954560  35.9380409
  41.3040094  18.5273084  36.6159428  40.2212693  17.5442600  36.2245768
  52.0470205   9.0432230  41.3760670  51.1596983   8.7058152  41.4987069
  52.6168756   8.3115261  41.6129435  33.6999352   5.3756322  34.7003721
  34.3870392   5.0618052  34.1124737  33.5447480   6.2797686  34.4270973
  38.5034074   0.2646518  39.1288745  38.4192263  -0.3427812  38.3939155
  37.6816780   0.7555537  39.1298241  45.5771358  13.7033682  38.3421913
  45.5041530  14.5088654  38.8541218  45.1348751  13.9025648  37.5169935
  45.3661138  12.9405452  31.8524735  44.5828660  13.4827133  31.9462959
  46.0653883  13.4579432  32.2518976  48.0370042  13.6020516  40.4980072
  48.7498014  14.2367981  40.4255973  47.5460070  13.6984382  39.6820074
  49.7587568   7.5071769  32.0697363  48.8243847   7.6273232  31.9002068
  49.9364237   6.6044236  31.8057373  43.0881955  11.3514960  41.3185643
  43.7891415  11.9851443  41.4715037  42.6177070  11.6929691  40.5581282
  51.2136351   9.6932910  29.6033550  51.4896195   9.5789504  30.5127424
  50.3440850   9.2950395  29.5645723  47.8490415  13.9419261  33.2466363
  48.0312809  13.1240917  33.7094116  48.6723401  14.1586953  32.8091253
  48.1832580  12.8687446  30.5081412  48.7120347  12.3579900  29.8951574
  48.4460800  12.5529976  31.3726945  46.9370814   4.6479378  45.6304230
  46.2611451   4.5473508  46.3006605  47.7598448   4.4918592  46.0940227
  38.6849673  10.8851315  38.2516745  39.2703110  10.1395003  38.3844649
  38.4874512  11.1955272  39.1353409  41.5388328  13.9202562  33.2679188
  40.8698704  14.4048690  32.7843228  41.4001198  14.1671783  34.1822566
  33.2767328   3.4556915  36.9721188  33.3151427   2.9220506  37.7658307
  32.7707621   2.9292121  36.3532166  45.6793597  15.9546306  39.8661846
  46.2311905  16.1177927  40.6310931  46.0199790  16.5450744  39.1941871
  50.5304471  10.7807563  45.7210500  51.0744375  11.3937522  45.2265455
  49.9491316  11.3387142  46.2377513  36.9075905   2.1821017  30.0475120
  37.2029347   1.2731696  29.9942174  36.0063941   2.1608757  29.7256122
  48.8161984  13.9028281  36.8525528  48.6913124  13.1018021  36.3436474
  49.4741075  14.3974475  36.3639498  40.4370152   0.2577014  36.0302668
  39.7156738   0.8712982  35.8910142  41.2263408   0.7934779  35.9519314
  50.8796893  11.7037302  38.4805078  49.9327228  11.5842653  38.4083405
  51.2279666  10.8159800  38.5631340  47.8843326  11.4990018  34.6809431
  47.7368288  10.5706725  34.8617001  48.7096819  11.5210108  34.1966506
  51.4877448  12.3218576  35.7674303  52.4123995  12.1161438  35.6298754
  51.3192751  12.0734978  36.6763645  42.6204062   2.3113569  36.2512292
  42.4748642   2.6253872  37.1436574  42.1429265   2.9298469  35.6983191
  51.2772764  12.8404244  31.1236395  51.4509641  12.2750666  30.3710247
  51.7701655  13.6405139  30.9415885  37.0949724   4.8518913  39.1899954
  36.5503192   5.6278721  39.3220228  37.9729074   5.1989717  39.0319075
  52.2647936  12.1571008  28.2233293  52.9598841  12.7777701  28.4420608
  52.6071087  11.3066360  28.4985671  37.8815746   3.9788809  42.0830110
  37.1397482   4.1271445  42.6694741  37.5608490   4.2397075  41.2196860
  54.1639360   9.6070714  29.7520624  54.6890684   9.9457987  29.0269944
  54.0761712   8.6717729  29.5683758  45.8259408  13.5204788  41.8810500
  46.1346535  13.2753934  42.7533200  46.6234890  13.7251426  41.3929371
  45.8480020  15.6742697  34.1115877  45.4085011  15.1819076  34.8048734
  46.5988137  15.1315665  33.8707952  38.3272359  11.8654238  34.1140505
  39.1530379  11.5658010  33.7339149  37.9766411  11.0961860  34.5630294
  43.2953892  11.2180706  36.1838179  42.6733902  10.5551411  35.8840406
  43.9658759  11.2441838  35.5011826  36.5280964   9.7840564  35.0729439
  35.6912873   9.3562739  34.8913440  36.5004610   9.9773008  36.0100230
  53.8533266  10.2403618  45.0571822  53.0628809  10.2227756  44.5176321
  53.6166620  10.7791911  45.8120858  53.9731141   7.0896084  42.3704550
  54.0229146   6.9246091  43.3120073  53.8645064   6.2223343  41.9802431
  42.8567399   9.7684630  29.6596639  43.0055520  10.4520094  29.0063312
  43.6633843   9.7489720  30.1746095  55.4749338   9.5093025  42.6146572
  55.1834146   9.8723006  43.4510033  54.8621469   8.7960034  42.4359904
  56.6745020   7.0745905  35.1349142  57.5091911   7.5135709  35.2986702
  56.8104149   6.5984558  34.3157388  40.6120032   5.7949807  30.6657708
  40.3666074   4.8912137  30.8637918  40.7815947   5.7966958  29.7237186
  39.8815680   1.5278165  28.1643870  39.1884925   1.6022520  27.5083906
  39.6367432   0.7638508  28.6865386  46.3562805  12.2632760  27.1308387
  45.7836772  12.8822947  26.6778858  46.9295599  12.8132122  27.6648309
  49.5760065  12.5469910  28.2616969  50.5090738  12.4815472  28.4649844
  49.4883278  13.3826177  27.8031502  52.2048081  11.8635780  25.2220916
  52.1261713  11.5295644  26.1156674  53.0257748  12.3557548  25.2212389
  46.7409603   3.5993573  24.4724439  47.6868708   3.4699781  24.5412857
  46.3623848   2.8608235  24.9493867  46.6248296   7.6511319  45.9325096
  47.5451305   7.8289918  46.1265143  46.5897879   6.7067364  45.7804795
  35.8430461   2.8449913  34.8578371  35.5233245   1.9915221  34.5652745
  35.2963889   3.0598491  35.6136338  39.6210368   5.5612354  38.5747877
  39.8396378   6.4929461  38.5935911  40.0336142   5.2020328  39.3602681
  35.7118721   6.4652824  36.8271492  35.0182192   6.0506777  36.3141447
  36.4591712   6.5073361  36.2304911  44.3569504   4.5642698  46.7815688
  43.8736586   5.3643058  46.9879577  44.4430443   4.5750643  45.8283132
  37.6255463   6.3971078  34.7037507  37.6026152   6.4958765  33.7519390
  37.9356100   7.2436229  35.0254673  40.2842841   8.4547233  38.8184122
  41.2386095   8.4231175  38.7514053  40.0855365   7.9937857  39.6334348
  40.8742223   7.0248349  41.3854919  41.6935112   7.5192428  41.4089757
  41.1479031   6.1080317  41.3572487  38.6393070  13.9966852  35.8354319
  38.5047538  13.2367253  35.2692318  38.2225132  14.7207752  35.3683108
  49.7752033   9.1803776  24.8430895  50.4787883   9.3853778  25.4588550
  49.0514682   9.7480538  25.1079978  50.6049843   4.9313637  30.9633165
  50.5485045   5.3882189  30.1240797  51.1578186   4.1704322  30.7856008
  41.7962196  14.8936169  36.0472762  41.6794580  15.8381602  35.9451452
  40.9754642  14.5909731  36.4358561  51.6838731   9.6186305  26.8929355
  52.5184334   9.1867504  26.7106830  51.5223073   9.4468319  27.8206249
  51.3384623   6.1218418  28.2585694  51.2833427   5.9562690  27.3174138
  50.7130678   6.8294451  28.4147884  36.1277138   1.3586483  42.0847116
  36.7736001   0.8485437  42.5734341  35.9194289   2.0955164  42.6590542
  48.6530530   8.4267330  47.5839257  49.5221690   8.6007983  47.2225892
  48.1737281   9.2461747  47.4614986  42.8216710  15.5464431  39.2628691
  43.7243957  15.5788042  39.5795185  42.5954080  14.6164882  39.2775026
  44.5770312  14.2995418  35.9238769  43.6265943  14.2997279  35.8103141
  44.8802798  13.5528152  35.4074804  60.3123006  20.1355956  36.9884532
  60.9501416  20.0162704  36.2847872  60.1943849  21.0836800  37.0472484
  57.1212712  20.0883384  36.9246056  56.7831223  19.9724449  36.0366591
  57.9902480  19.6874549  36.9047062  52.9799528  21.9418861  32.9142947
  52.4164393  21.8508798  32.1459235  52.8651923  21.1218765  33.3945440
  57.6032495  21.2418236  42.8832262  57.5921136  20.8471034  42.0112765
  57.7653134  20.5084309  43.4766033  58.5599086  25.6089828  28.2257412
  57.9087066  26.1943909  27.8391426  59.3543449  26.1396023  28.2852450
  52.4854713  22.6978966  28.6244546  53.2585589  22.1507953  28.4857422
  52.8380112  23.5623215  28.8359008  54.3239756  24.0255348  41.8311446
  54.0329622  24.9300979  41.7158112  54.9596740  24.0671875  42.5455515
  55.2495963  21.4032196  38.4212805  55.8459535  21.1788219  37.7069768
  55.3070934  20.6616942  39.0238253  54.8220991  18.8571632  26.2562996
  55.0746512  18.3353153  25.4946459  53.8845550  18.6937777  26.3589680
  59.8664274  17.8607410  34.0637740  60.6527363  17.4426833  33.7128157
  60.1302978  18.7653502  34.2319388  60.0374351  23.2980260  28.7626396
  59.4020184  23.3714887  29.4747301  59.7071758  23.8873859  28.0845476
  65.2672701  17.7982643  34.9670718  65.9997873  17.2281860  35.2008548
  64.5112057  17.4104244  35.4077224  54.5417280  20.7599738  28.4587371
  54.4253538  20.0844641  29.1268456  54.6519540  20.2732112  27.6419524
  56.8848821  20.2209885  32.1634061  56.5207028  19.6940506  32.8746982
  57.7415937  19.8308354  31.9900546  62.7898122  11.5104217  39.4265327
  62.4581446  12.3799628  39.2026542  62.1943735  11.1940501  40.1059357
  56.5254308  15.2499784  27.1595409  56.6928710  16.1180021  27.5265880
  56.3351477  15.4127066  26.2356698  59.2829641  23.7116763  38.8261239
  58.9830364  24.6141802  38.7177047  58.9380701  23.4448947  39.6782392
  52.7342123  20.1630560  34.8597944  51.8092619  20.0306774  35.0675636
  52.9826536  20.9424779  35.3567886  62.6826785  16.2299304  36.5058677
  61.7743662  16.1614712  36.2117438  62.6314381  16.7071248  37.3340502
  56.5043529  17.7057442  28.1442076  56.3843154  18.1514493  28.9827556
  55.8096117  18.0542760  27.5855614  50.0950934  19.8063834  35.6941733
  50.2243315  20.0598313  36.6081145  49.4148385  20.3991542  35.3746388
  56.7567651  17.6488949  44.4493574  55.9800985  18.2082869  44.4396439
  57.3958214  18.1345732  44.9708444  64.5488431  14.4315742  38.2836551
  63.9062812  14.7248275  37.6376345  64.0443360  14.3168662  39.0889747
  62.2028595  18.1778915  28.9722410  63.1146451  18.4106302  28.7970107
  61.6938242  18.7615959  28.4097489  55.0114023  20.4574402  44.0111541
  55.7528707  20.9959446  43.7346365  54.3051008  21.0840691  44.1683093
  60.4869363  22.6003543  42.6083703  60.8952719  22.1585953  41.8638335
  59.7646624  22.0256170  42.8617895  56.8400433  17.5376150  39.9817259
  57.6861628  17.9615563  40.1251908  56.7799070  16.8809774  40.6755823
  60.8098177  23.1604734  36.3635991  60.1807040  23.3250448  35.6612059
  60.4223839  23.5746343  37.1346955  64.6887409  24.0959171  33.7180355
  64.0038447  24.4758073  33.1677388  64.7731259  24.7054498  34.4512303
  59.9899878  15.1980518  41.6398433  59.7460810  15.9522579  41.1032709
  60.2659809  15.5765866  42.4745680  61.9438341  21.7419130  40.3175699
  62.1555236  22.3850890  39.6410080  61.8968089  20.9081447  39.8497629
  59.5464570  14.3536951  37.2212271  58.6849049  14.6518205  37.5129008
  59.5727004  14.5707350  36.2893303  56.3626139  22.8979142  33.6286077
  56.8264485  23.1766845  32.8390699  56.0982937  21.9962586  33.4459167
  53.2550220  22.4450623  36.5665840  53.8251577  22.8737892  35.9283324
  53.8458332  22.1633208  37.2650025  55.2995025  19.0202294  30.4375642
  56.0019069  19.4723338  30.9049568  54.9675654  18.3786113  31.0655535
  53.7475387  17.6114051  44.8126851  53.1174047  18.2930332  45.0462248
  53.6411475  17.4997132  43.8679989  49.0420359  17.2785847  35.7392775
  48.2519413  17.5343375  35.2632886  49.5331607  18.0934185  35.8444816
  63.0584169  24.6191086  38.4898056  63.8801612  24.2171273  38.2080738
  63.0546572  24.5159320  39.4414172  50.9935105  17.6430426  32.6976252
  50.1966268  17.7549120  33.2159748  50.7660697  17.9817078  31.8317142
  56.8240772  24.1675129  40.6458767  56.8885205  24.6295536  41.4816938
  56.1151696  23.5372494  40.7741076  47.3258062  17.5316337  38.1707766
  47.5766101  18.4163347  38.4365342  47.8617611  17.3520939  37.3982858
  56.5388790  25.8343237  30.5137747  56.4034465  26.6794772  30.9422595
  57.0798602  26.0362514  29.7503681  53.0256129  11.9134817  47.1752102
  52.6323075  11.3601015  47.8499746  53.8422270  12.2245395  47.5658620
  55.9424090  13.3292696  44.7672359  56.6833804  13.9299849  44.6876821
  56.1742013  12.5870333  44.2090401  51.0865428  18.5149063  43.0450588
  50.9718944  17.6134320  43.3457687  50.2309946  18.7612760  42.6935405
  58.1657266  26.4566803  44.6438089  57.7221120  25.6703182  44.3258993
  58.8274480  26.6445954  43.9781980  60.2638504  26.7369603  42.6719490
  60.2456980  27.5578484  42.1799759  61.1858424  26.6123678  42.8969631
  56.7211558  24.2513733  43.5142999  57.2539895  23.4902021  43.2842307
  56.1925640  23.9587384  44.2567153  59.8881253   9.3573799  39.0436640
  59.5445523  10.2475440  38.9675751  60.2560216   9.1675456  38.1806225
  47.9567104  21.6807329  31.8625242  48.7942326  22.0904337  31.6458950
  48.1345372  20.7406771  31.8325436  59.8531536  19.3482410  27.5509075
  59.3378160  20.1187014  27.7897463  59.5808845  18.6747546  28.1742137
  57.4378647  14.1932110  32.6094314  56.5820244  13.8038961  32.4299953
  57.8505599  14.2724071  31.7494099  58.9677794  11.7278454  37.0085874
  58.4642589  11.6908589  36.1953679  59.2608401  12.6371196  37.0682530
  55.2120680  11.8117183  36.0152055  56.0773676  11.6159992  35.6557945
  55.2798189  11.5827535  36.9421412  64.8265810  22.1014764  29.4862249
  64.0495253  21.7625924  29.0417411  65.5057291  22.1067387  28.8117214
  59.6417839  17.2209502  29.3768857  59.3367975  17.5355651  30.2279000
  60.5948281  17.2990922  29.4196190  58.0864271  23.3799725  31.0261811
  57.5585633  22.6452485  30.7135048  57.5851774  24.1574401  30.7801779
  63.0657117  21.5748746  36.1428857  62.4080792  22.2648007  36.2308986
  63.8697516  21.9645177  36.4862843  52.8182999  14.0419391  33.3868422
  53.3926751  13.8194573  32.6541615  53.4053981  14.1108086  34.1397023
  61.8762576  19.9293118  34.1932799  62.3894458  20.5623110  34.6954508
  62.5263800  19.3294314  33.8276159  53.1452586  16.0723852  27.4064307
  52.3089898  16.4098539  27.7273582  53.0057356  15.9372832  26.4691444
  55.1205666  10.9160640  32.1143492  54.4670079  10.6009657  31.4900106
  55.0786141  10.2936381  32.8403314  56.2316871  21.1979935  24.0296784
  55.3243933  20.9669189  24.2287933  56.7287903  20.4017555  24.2170765
  59.1384950  29.9077443  26.9493470  58.4646649  30.2109139  27.5578428
  59.5250772  30.7106523  26.5998927  58.3543407  17.4042574  36.4391139
  57.4365968  17.6257521  36.2812827  58.7703550  17.4788884  35.5802847
  59.1378455  18.8033989  31.5693819  59.8850274  19.3155387  31.2600941
  59.4070044  18.4818042  32.4298213  57.4105105  21.2992530  28.5520774
  56.5016324  21.0151563  28.6493243  57.4400189  21.7191609  27.6924081
  62.6424372  24.9099120  32.3211941  62.1886699  24.0690030  32.3777132
  62.0118339  25.5460518  32.6586721  61.5857292  15.8391106  33.5512609
  60.8480049  15.3268492  33.8822851  61.8384065  15.3991487  32.7395886
  61.0857311  26.7475616  33.2561759  61.3780286  27.3080673  32.5374125
  61.5955932  27.0404177  34.0114919  61.6868919   8.6167358  34.1454378
  61.9927796   7.7564721  33.8580293  62.4121524   9.2084978  33.9453372
  47.9793275  19.0198044  32.5335976  47.7817675  18.4267405  31.8087042
  47.4239939  18.7150254  33.2511915  55.9589999  18.9121151  34.6530569
  56.0138609  17.9594987  34.5773046  55.1481201  19.0680590  35.1371867
  57.1081193  22.8401274  25.8908852  56.6700623  22.1237133  25.4314490
  57.8491633  23.0677389  25.3293944  53.8982359  17.5298211  32.4120948
  53.0850224  17.8292381  32.8186140  54.3941353  17.1353899  33.1295430
  56.0490937  27.5255967  34.3455213  56.0067115  27.7516814  33.4163745
  56.9653635  27.2919342  34.4941014  59.4956570  17.9940035  41.2435842
  59.8505958  18.2211508  42.1030308  60.1428702  18.3258412  40.6213097
  65.2254307  21.1158471  31.9485171  65.0872206  21.3060067  31.0206360
  64.8690526  21.8777854  32.4053222  53.3896434  15.1016566  38.0282183
  54.0295813  14.9605325  37.3305146  52.5573964  14.8151079  37.6520785
  65.2523687  23.1834998  36.9596442  65.6860194  23.0910287  37.8079496
  65.9655268  23.1592498  36.3216458  54.1656737  24.4018996  34.1417175
  54.9597336  23.9069317  33.9399750  53.4548430  23.8736860  33.7784881
  58.9851582  26.7837092  38.4929543  59.0388604  27.3528028  39.2607259
  58.1166363  26.9538977  38.1283580  50.4739501  18.5462078  30.2176928
  49.5437089  18.4846534  30.4346890  50.5696973  18.0238031  29.4213569
  50.3925050  15.0716891  32.8055170  50.6531867  15.9862224  32.6964330
  51.2142222  14.6041334  32.9551783  51.8649975  16.4854648  39.9753994
  52.5373029  16.2772010  39.3266643  51.0379762  16.2876734  39.5359227
  66.1139237  23.2258699  39.4929328  66.3075127  24.1304509  39.7388603
  66.0139855  22.7666118  40.3267913  57.7675547  13.1116589  41.9919655
  57.1203462  13.8106539  41.8984132  58.5376563  13.5452733  42.3595903
  61.1754345  23.3765441  45.0670208  61.0239852  23.1475993  44.1500292
  61.1659025  24.3336043  45.0801553  57.9439682  20.9497354  40.0516475
  58.8731742  21.1008514  39.8785442  57.5230712  21.0381375  39.1965121
  56.7428013  24.9748018  37.8215012  56.6039099  24.6066803  38.6940951
  55.9542610  25.4895658  37.6498970  57.3376165  30.0757115  29.1640549
  57.5127921  29.6045158  29.9786172  56.6508953  30.7022881  29.3921810
  58.2933229  24.3529621  35.2103850  57.9583061  24.3130391  36.1061500
  57.7937174  23.6874337  34.7374260  52.2677473  19.7597251  40.7356431
  52.1297270  19.0277490  41.3367970  53.1782396  19.6706151  40.4540619
  61.2292420  21.6985656  25.4840910  60.6121591  20.9732484  25.3873963
  60.7608909  22.4595016  25.1407984  54.8959773  19.4717211  40.2240111
  55.6059392  18.8310403  40.1826729  54.8529081  19.7230105  41.1466292
  62.8846552  26.4084564  43.1446690  62.8259098  25.7243784  42.4777273
  63.2866070  27.1503554  42.6927316  53.6088707  16.4582428  42.0435751
  53.0726064  16.0073167  42.6957347  53.0205416  16.5928337  41.3006215
  53.0190966  15.9171080  24.6062214  52.1420432  15.7959881  24.2424461
  53.4948719  15.1257158  24.3541103  62.8863959  24.3724148  41.3760670
  61.9990738  24.0350070  41.4987069  63.4562510  23.6407179  41.6129435
  49.3427828  15.5938436  39.1288745  49.2586017  14.9864106  38.3939155
  48.5210535  16.0847454  39.1298241  56.4165113  29.0325600  38.3421913
  56.3435284  29.8380572  38.8541218  55.9742506  29.2317566  37.5169935
  56.2054892  28.2697370  31.8524735  55.4222414  28.8119050  31.9462959
  56.9047637  28.7871350  32.2518976  59.5151542  14.0792000  34.4958940
  60.0120242  13.3261962  34.1760010  58.7438524  14.1156316  33.9302149
  67.3681300  19.7832365  36.1377232  67.3571176  20.6657081  35.7671165
  66.4998679  19.4303916  35.9431769  58.8763796  28.9312434  40.4980072
  59.5891768  29.5659899  40.4255973  58.3853825  29.0276300  39.6820074
  60.5981323  22.8363687  32.0697363  59.6637602  22.9565149  31.9002068
  60.7757991  21.9336154  31.8057373  56.0986511  16.2209383  34.2230625
  55.7284299  15.6680423  34.9111530  56.5945603  15.6167516  33.6705625
  63.9853874  18.6781006  32.6047398  64.4514327  19.5108998  32.5307700
  64.4361375  18.2125988  33.3092656  62.0530105  25.0224827  29.6033550
  62.3289949  24.9081422  30.5127424  61.1834604  24.6242312  29.5645723
  61.9570537  11.0461593  36.6438299  61.0433617  11.2765820  36.8120506
  62.3863639  11.1300037  37.4952331  61.7276996  19.2351485  39.1438193
  61.0748446  19.4827393  38.4890646  62.1057375  18.4215623  38.8100670
  58.6884169  29.2711178  33.2466363  58.8706564  28.4532834  33.7094116
  59.5117155  29.4878871  32.8091253  59.0226335  28.1979363  30.5081412
  59.5514101  27.6871818  29.8951574  59.2854555  27.8821894  31.3726945
  57.7764569  19.9771296  45.6304230  57.1005206  19.8765425  46.3006605
  58.5992202  19.8210510  46.0940227  44.1161082  18.7848833  36.9721188
  44.1545182  18.2512424  37.7658307  43.6101375  18.2584038  36.3532166
  51.4951845  13.6313373  40.4683731  51.5593171  14.4928204  40.0561128
  51.4318965  13.0187375  39.7356089  50.9704117  15.7036506  44.1156765
  51.5976156  15.3213583  44.7294289  50.1132036  15.4850708  44.4812457
  61.3698226  26.1099481  45.7210500  61.9138130  26.7229439  45.2265455
  60.7885071  26.6679060  46.2377513  47.7469660  17.5112935  30.0475120
  48.0423101  16.6023613  29.9942174  46.8457696  17.4900674  29.7256122
  59.6555739  29.2320199  36.8525528  59.5306878  28.4309939  36.3436474
  60.3134830  29.7266392  36.3639498  51.2763907  15.5868932  36.0302668
  50.5550493  16.2004899  35.8910142  52.0657163  16.1226696  35.9519314
  61.7190647  27.0329219  38.4805078  60.7720983  26.9134570  38.4083405
  62.0673420  26.1451717  38.5631340  54.0790220  12.9223358  42.3043320
  54.6024622  13.1685655  43.0669629  53.8602554  13.7543393  41.8846458
  49.4757502  15.1927033  30.1714445  49.1470208  14.3124412  29.9889551
  49.8296872  15.1374701  31.0590834  58.7237080  26.8281935  34.6809431
  58.5762043  25.8998643  34.8617001  59.5490574  26.8502026  34.1966506
  52.5899325  15.4800003  30.5389923  52.9295397  16.0085924  29.8168531
  53.0371445  15.8180409  31.3148489  62.3271202  27.6510494  35.7674303
  63.2517750  27.4453355  35.6298754  62.1586506  27.4026895  36.6763645
  55.2842766  13.8637053  39.9892991  54.9439586  13.0644866  40.3913671
  54.5781772  14.1638764  39.4169824  55.9359237  10.9486366  38.4420314
  56.7585307  10.4746844  38.3199204  56.1797301  11.7276849  38.9419000
  54.5767472  13.9774624  28.7383215  55.2975834  14.3555877  28.2346932
  53.9532776  14.6963501  28.8418193  58.7198595  14.6819773  29.6741548
  58.9362209  15.5644411  29.3730376  58.2392662  14.2905986  28.9447190
  53.4597816  17.6405486  36.2512292  53.3142397  17.9545789  37.1436574
  52.9823020  18.2590387  35.6983191  55.3194199  14.6308034  36.2993182
  55.3055768  13.7349128  35.9625480  56.0366627  14.6378698  36.9331468
  57.1720330  15.0645374  38.3446309  56.9138108  15.9862445  38.3430640
  56.6405370  14.6675809  39.0346773  62.1166518  28.1696162  31.1236395
  62.2903396  27.6042584  30.3710247  62.6095410  28.9697056  30.9415885
  54.7231095  13.5122415  31.5680752  54.8447006  12.5839061  31.7671640
  54.4333137  13.5261101  30.6559067  57.5922285  11.1977325  34.7047472
  57.6143982  11.2616658  33.7499451  58.0090344  10.3581834  34.8987978
  67.9705910  20.9332585  32.7426694  68.4137056  20.1839910  32.3445818
  67.0932420  20.9242721  32.3600426  63.1041691  27.4862926  28.2233293
  63.7992596  28.1069619  28.4420608  63.4464841  26.6358277  28.4985671
  65.0033114  24.9362632  29.7520624  65.5284438  25.2749904  29.0269944
  64.9155467  24.0009647  29.5683758  56.6653163  28.8496705  41.8810500
  56.9740289  28.6045852  42.7533200  57.4628645  29.0543344  41.3929371
  54.2072174  15.0254412  45.7770685  54.2560330  15.9016535  45.3948454
  54.7494689  14.4831805  45.2042328  64.6927020  25.5695535  45.0571822
  63.9022564  25.5519674  44.5176321  64.4560375  26.1083829  45.8120858
  64.8124895  22.4188002  42.3704550  64.8622900  22.2538009  43.3120073
  64.7038819  21.5515261  41.9802431  53.6961154  25.0976547  29.6596639
  53.8449274  25.7812012  29.0063312  54.5027597  25.0781637  30.1746095
  62.1028658  18.4018930  43.6863857  63.0038520  18.2625394  43.3947855
  62.1776632  18.5673384  44.6262034  56.4371463  15.7785784  42.5317043
  55.5674772  16.0719350  42.2599632  56.6730943  16.3626229  43.2524307
  66.3143092  24.8384943  42.6146572  66.0227900  25.2014924  43.4510033
  65.7015223  24.1251951  42.4359904  67.5138774  22.4037823  35.1349142
  68.3485666  22.8427627  35.2986702  67.6497903  21.9276476  34.3157388
  64.5630280  19.9617558  41.0826630  65.0384402  20.1545204  40.2745481
  63.6395846  20.0176744  40.8370013  51.4513787  21.1241725  30.6657708
  51.2059829  20.2204055  30.8637918  51.6209701  21.1258875  29.7237186
  59.1410497  11.9965401  40.0482464  59.6592441  12.7326428  39.7228952
  58.7865630  12.3029395  40.8829223  50.7209434  16.8570082  28.1643870
  50.0278679  16.9314437  27.5083906  50.4761186  16.0930426  28.6865386
  59.3923091   8.4165684  35.5683360  59.6724845   7.7488873  36.1943787
  60.1773698   8.6094779  35.0558024  57.1956559  27.5924678  27.1308387
  56.6230526  28.2114865  26.6778858  57.7689353  28.1424039  27.6648309
  63.2631949  16.8383318  39.3154935  64.2149372  16.9381415  39.3367159
  63.0935400  16.0461586  39.8253020  61.2846329  13.9238901  39.5014336
  60.6896261  14.2043914  38.8060825  60.9996025  14.4132802  40.2731077
  60.4153819  27.8761828  28.2616969  61.3484492  27.8107389  28.4649844
  60.3277032  28.7118095  27.8031502  63.0441836  27.1927698  25.2220916
  62.9655467  26.8587562  26.1156674  63.8651503  27.6849466  25.2212389
  65.7420027  20.0589437  38.4297235  65.7096347  19.1205438  38.6156919
  66.3520651  20.1373474  37.6963060  57.5803358  18.9285490  24.4724439
  58.5262463  18.7991699  24.5412857  57.2017603  18.1900152  24.9493867
  65.8914516  16.8500481  38.4755518  65.3753564  16.0658938  38.2885447
  66.7754464  16.5219198  38.6402038  63.5525242  10.5941496  34.4351331
  63.3550064  10.2856585  35.3194663  64.1624948  11.3203135  34.5649261
  69.6411874  19.2613307  38.1677723  68.9145038  19.1269272  37.5594215
  69.2259161  19.5690136  38.9734441  57.4642050  22.9803237  45.9325096
  58.3845060  23.1581836  46.1265143  57.4291633  22.0359282  45.7804795
  55.7646275  16.8535467  24.4079324  54.8577730  16.5568580  24.4842038
  56.0422256  16.5565285  23.5413611  46.6824215  18.1741830  34.8578371
  46.3627000  17.3207138  34.5652745  46.1357644  18.3890408  35.6136338
  57.3808341  11.3972357  30.5623566  56.5709069  11.0519442  30.9378812
  58.0692758  11.0879900  31.1511177  59.3098889  10.4750403  32.1847862
  59.8629928  10.8945857  32.8437885  59.5468975   9.5486151  32.2270818
  55.3331988  16.4637477  47.9650626  55.2328715  17.4131834  47.8962717
  55.1153530  16.1355716  47.0926696  54.5345060  13.7122402  24.5491304
  55.3964224  14.0377300  24.8087121  54.7195404  12.9253898  24.0364369
  62.6877696  12.5850929  31.6926527  62.1076365  13.2435733  31.3104579
  62.4213629  11.7628273  31.2813944  61.1381263  11.9855986  33.8947847
  61.6381041  12.0972521  33.0862166  61.7816870  11.6817039  34.5348655
  55.1963258  19.8934616  46.7815688  54.7130340  20.6934976  46.9879577
  55.2824197  19.9042561  45.8283132  48.4649218  21.7262996  34.7037507
  48.4419906  21.8250683  33.7519390  48.7749854  22.5728146  35.0254673
  51.7135978  22.3540267  41.3854919  52.5328867  22.8484345  41.4089757
  51.9872786  21.4372235  41.3572487  61.4702574  14.7451019  30.7482875
  60.5828429  15.0300670  30.5303070  61.8856563  14.5844782  29.9010152
  64.8217110  14.7697540  34.4637214  65.5977500  15.2593992  34.7361831
  64.0965244  15.1955594  34.9209084  67.2589669  15.4825159  35.5211155
  67.8534160  15.2420895  34.8104463  67.3316253  14.7632290  36.1484691
  60.6145788  24.5095694  24.8430895  61.3181638  24.7145696  25.4588550
  59.8908436  25.0772455  25.1079978  61.4443598  20.2605555  30.9633165
  61.3878799  20.7174106  30.1240797  61.9971940  19.4996239  30.7856008
  65.2548404  16.0495287  31.7883284  64.9985338  15.6491922  32.6191492
  64.6301272  16.7639081  31.6633424  69.5660742  18.7891360  34.2954576
  69.0060300  18.8584549  35.0686138  68.9604245  18.6132345  33.5754072
  62.5232485  24.9478223  26.8929355  63.3578089  24.5159421  26.7106830
  62.3616828  24.7760236  27.8206249  62.1778377  21.4510336  28.2585694
  62.1227181  21.2854608  27.3174138  61.5524432  22.1586369  28.4147884
  46.9670892  16.6878400  42.0847116  47.6129756  16.1777354  42.5734341
  46.7588043  17.4247082  42.6590542  59.4924284  23.7559248  47.5839257
  60.3615444  23.9299900  47.2225892  59.0131036  24.5753665  47.4614986
  55.4874503  10.9518445  27.8371013  55.4753173  11.8960285  27.9939283
  56.3797925  10.7688590  27.5430474  55.4164067  29.6287335  35.9238769
  54.4659698  29.6289197  35.8103141  55.7196553  28.8820070  35.4074804
  59.3026622   7.5461222  32.0916949  58.5359018   6.9919708  32.2373632
  59.7137327   7.6183090  32.9531101  51.3068383  13.8346018  46.1822131
  52.1699845  13.4782822  46.3925455  50.7333794  13.4959912  46.8697535
  67.9606466  35.4175302  36.9246056  67.6224978  35.3016367  36.0366591
  68.8296235  35.0166467  36.9047062  63.8193282  37.2710778  32.9142947
  63.2558147  37.1800715  32.1459235  63.7045677  36.4510683  33.3945440
  68.4426249  36.5710154  42.8832262  68.4314890  36.1762952  42.0112765
  68.6046889  35.8376226  43.4766033  61.3657714  38.7661970  35.7527168
  62.1579006  38.4252795  35.3373467  61.6054364  38.8756945  36.6729321
  69.3992841  40.9381746  28.2257412  68.7480821  41.5235827  27.8391426
  70.1937204  41.4687941  28.2852450  63.3248468  38.0270883  28.6244546
  64.0979344  37.4799870  28.4857422  63.6773867  38.8915133  28.8359008
  65.1633511  39.3547266  41.8311446  64.8723377  40.2592896  41.7158112
  65.7990495  39.3963793  42.5455515  66.0889717  36.7324114  38.4212805
  66.6853290  36.5080136  37.7069768  66.1464689  35.9908860  39.0238253
  65.6614746  34.1863549  26.2562996  65.9140266  33.6645071  25.4946459
  64.7239305  34.0229695  26.3589680  65.3811035  36.0891655  28.4587371
  65.2647293  35.4136559  29.1268456  65.4913294  35.6024029  27.6419524
  67.7242575  35.5501802  32.1634061  67.3600783  35.0232423  32.8746982
  68.5809691  35.1600271  31.9900546  67.3648062  30.5791702  27.1595409
  67.5322465  31.4471939  27.5265880  67.1745232  30.7418984  26.2356698
  70.1223396  39.0408681  38.8261239  69.8224119  39.9433720  38.7177047
  69.7774455  38.7740864  39.6782392  63.5735877  35.4922478  34.8597944
  62.6486374  35.3598692  35.0675636  63.8220290  36.2716697  35.3567886
  67.3437283  33.0349360  28.1442076  67.2236909  33.4806410  28.9827556
  66.6489872  33.3834677  27.5855614  60.9344688  35.1355751  35.6941733
  61.0637069  35.3890230  36.6081145  60.2542139  35.7283459  35.3746388
  65.1044175  45.8053001  31.7932207  65.0268205  46.7560826  31.8720688
  64.5005819  45.4598874  32.4507133  67.5961405  32.9780867  44.4493574
  66.8194739  33.5374787  44.4396439  68.2351968  33.4637650  44.9708444
  65.8507778  35.7866320  44.0111541  66.5922462  36.3251364  43.7346365
  65.1444763  36.4132609  44.1683093  67.6794187  32.8668067  39.9817259
  68.5255382  33.2907481  40.1251908  67.6192825  32.2101692  40.6755823
  70.3858324  29.6828869  37.2212271  69.5242803  29.9810122  37.5129008
  70.4120759  29.8999268  36.2893303  67.2019894  38.2271059  33.6286077
  67.6658239  38.5058762  32.8390699  66.9376692  37.3254504  33.4459167
  64.0943975  37.7742541  36.5665840  64.6645332  38.2029809  35.9283324
  64.6852087  37.4925126  37.2650025  66.1388780  34.3494212  30.4375642
  66.8412823  34.8015255  30.9049568  65.8069408  33.7078031  31.0655535
  64.5869141  32.9405968  44.8126851  63.9567802  33.6222249  45.0462248
  64.4805229  32.8289050  43.8679989  59.8814114  32.6077764  35.7392775
  59.0913168  32.8635293  35.2632886  60.3725361  33.4226102  35.8444816
  61.8328859  32.9722344  32.6976252  61.0360022  33.0841038  33.2159748
  61.6054451  33.3108996  31.8317142  67.6634527  39.4967047  40.6458767
  67.7278959  39.9587454  41.4816938  66.9545451  38.8664412  40.7741076
  67.3782544  41.1635154  30.5137747  67.2428219  42.0086690  30.9422595
  67.9192357  41.3654432  29.7503681  63.8649884  27.2426734  47.1752102
  63.4716830  26.6892933  47.8499746  64.6816024  27.5537313  47.5658620
  60.8311942  38.6810592  31.0865672  61.3436462  39.4753843  31.2371237
  61.4834655  37.9836883  31.0199273  62.6406826  41.7976349  33.1688425
  62.8173455  42.7194313  32.9809409  63.4363660  41.4834768  33.5982805
  66.7817845  28.6584613  44.7672359  67.5227558  29.2591766  44.6876821
  67.0135768  27.9162251  44.2090401  61.9259183  33.8440981  43.0450588
  61.8112698  32.9426238  43.3457687  61.0703701  34.0904677  42.6935405
  69.0051021  41.7858721  44.6438089  68.5614875  40.9995099  44.3258993
  69.6668234  41.9737871  43.9781980  63.7638142  43.3154522  39.1698767
  64.3145567  43.1871586  38.3975761  62.9249618  43.6149411  38.8193660
  67.5605313  39.5805650  43.5142999  68.0933650  38.8193938  43.2842307
  67.0319394  39.2879302  44.2567153  70.6925291  34.6774327  27.5509075
  70.1771914  35.4478932  27.7897463  70.4202599  34.0039463  28.1742137
  68.2772402  29.5224028  32.6094314  67.4213998  29.1330878  32.4299953
  68.6899353  29.6015989  31.7494099  69.8071548  27.0570371  37.0085874
  69.3036344  27.0200507  36.1953679  70.1002155  27.9663114  37.0682530
  66.0514434  27.1409101  36.0152055  66.9167431  26.9451910  35.6557945
  66.1191943  26.9119453  36.9421412  68.9258026  38.7091643  31.0261811
  68.3979387  37.9744402  30.7135048  68.4245528  39.4866319  30.7801779
  63.6576753  29.3711309  33.3868422  64.2320505  29.1486491  32.6541615
  64.2447736  29.4400004  34.1397023  63.9846340  31.4015770  27.4064307
  63.1483653  31.7390457  27.7273582  63.8451110  31.2664750  26.4691444
  65.9599421  26.2452558  32.1143492  65.3063833  25.9301575  31.4900106
  65.9179895  25.6228298  32.8403314  67.0710626  36.5271853  24.0296784
  66.1637688  36.2961106  24.2287933  67.5681658  35.7309472  24.2170765
  69.9778705  45.2369360  26.9493470  69.3040403  45.5401057  27.5578428
  70.3644527  46.0398441  26.5998927  69.1937161  32.7334491  36.4391139
  68.2759723  32.9549438  36.2812827  69.6097305  32.8080802  35.5802847
  69.9772209  34.1325907  31.5693819  70.7244028  34.6447304  31.2600941
  70.2463799  33.8109960  32.4298213  68.2498859  36.6284448  28.5520774
  67.3410079  36.3443481  28.6493243  68.2793943  37.0483526  27.6924081
  58.8187030  34.3489962  32.5335976  58.6211429  33.7559323  31.8087042
  58.2633694  34.0442172  33.2511915  66.7983753  34.2413068  34.6530569
  66.8532363  33.2886905  34.5773046  65.9874955  34.3972508  35.1371867
  67.9474947  38.1693192  25.8908852  67.5094377  37.4529050  25.4314490
  68.6885388  38.3969306  25.3293944  64.7376113  32.8590128  32.4120948
  63.9243979  33.1584299  32.8186140  65.2335107  32.4645817  33.1295430
  66.8884691  42.8547885  34.3455213  66.8460870  43.0808731  33.4163745
  67.8047390  42.6211260  34.4941014  64.2290188  30.4308484  38.0282183
  64.8689567  30.2897243  37.3305146  63.3967719  30.1442997  37.6520785
  65.0050492  39.7310914  34.1417175  65.7991090  39.2361234  33.9399750
  64.2942184  39.2028777  33.7784881  69.8245336  42.1129010  38.4929543
  69.8782359  42.6819946  39.2607259  68.9560118  42.2830895  38.1283580
  61.3133255  33.8753996  30.2176928  60.3830843  33.8138451  30.4346890
  61.4090727  33.3529949  29.4213569  61.2318804  30.4008809  32.8055170
  61.4925622  31.3154142  32.6964330  62.0535977  29.9333251  32.9551783
  62.7043730  31.8146566  39.9753994  63.3766783  31.6063928  39.3266643
  61.8773516  31.6168652  39.5359227  68.6069302  28.4408507  41.9919655
  67.9597217  29.1398456  41.8984132  69.3770317  28.8744651  42.3595903
  68.7833436  36.2789272  40.0516475  69.7125496  36.4300431  39.8785442
  68.3624466  36.3673293  39.1965121  67.5821768  40.3039936  37.8215012
  67.4432854  39.9358721  38.6940951  66.7936364  40.8187576  37.6498970
  68.1769920  45.4049033  29.1640549  68.3521676  44.9337076  29.9786172
  67.4902708  46.0314799  29.3921810  69.1326983  39.6821539  35.2103850
  68.7976816  39.6422309  36.1061500  68.6330929  39.0166255  34.7374260
  63.1071227  35.0889169  40.7356431  62.9691025  34.3569408  41.3367970
  64.0176150  34.9998069  40.4540619  65.7353528  34.8009128  40.2240111
  66.4453146  34.1602320  40.1826729  65.6922836  35.0522023  41.1466292
  64.4482462  31.7874346  42.0435751  63.9119819  31.3365085  42.6957347
  63.8599170  31.9220255  41.3006215  62.7431005  48.5538395  35.9380409
  62.9827603  49.1856920  36.6159428  61.9000202  48.2026435  36.2245768
  63.8584721  31.2462997  24.6062214  62.9814187  31.1251798  24.2424461
  64.3342474  30.4549076  24.3541103  60.1821583  30.9230354  39.1288745
  60.0979772  30.3156023  38.3939155  59.3604289  31.4139372  39.1298241
  67.2558867  44.3617518  38.3421913  67.1829038  45.1672489  38.8541218
  66.8136260  44.5609484  37.5169935  67.0448647  43.5989288  31.8524735
  66.2616169  44.1410968  31.9462959  67.7441392  44.1163267  32.2518976
  70.3545297  29.4083917  34.4958940  70.8513996  28.6553880  34.1760010
  69.5832278  29.4448234  33.9302149  69.7157551  44.2604352  40.4980072
  70.4285523  44.8951817  40.4255973  69.2247579  44.3568218  39.6820074
  66.9380265  31.5501300  34.2230625  66.5678053  30.9972341  34.9111530
  67.4339358  30.9459434  33.6705625  64.7669464  42.0098795  41.3185643
  65.4678924  42.6435278  41.4715037  64.2964579  42.3513527  40.5581282
  69.5277924  44.6003096  33.2466363  69.7100318  43.7824752  33.7094116
  70.3510910  44.8170788  32.8091253  69.8620089  43.5271281  30.5081412
  70.3907856  43.0163736  29.8951574  70.1248309  43.2113811  31.3726945
  68.6158323  35.3063214  45.6304230  67.9398960  35.2057343  46.3006605
  69.4385957  35.1502428  46.0940227  60.3637182  41.5435150  38.2516745
  60.9490619  40.7978838  38.3844649  60.1662021  41.8539107  39.1353409
  63.2175837  44.5786398  33.2679188  62.5486213  45.0632525  32.7843228
  63.0788707  44.8255618  34.1822566  67.3581106  46.6130141  39.8661846
  67.9099414  46.7761763  40.6310931  67.6987299  47.2034579  39.1941871
  62.3345599  28.9605291  40.4683731  62.3986926  29.8220122  40.0561128
  62.2712719  28.3479293  39.7356089  61.8097872  31.0328424  44.1156765
  62.4369910  30.6505501  44.7294289  60.9525791  30.8142626  44.4812457
  58.5863414  32.8404853  30.0475120  58.8816856  31.9315531  29.9942174
  57.6851450  32.8192592  29.7256122  62.1157661  30.9160849  36.0302668
  61.3944247  31.5296817  35.8910142  62.9050917  31.4518614  35.9519314
  64.9183975  28.2515276  42.3043320  65.4418377  28.4977572  43.0669629
  64.6996308  29.0835311  41.8846458  60.3151256  30.5218950  30.1714445
  59.9863962  29.6416329  29.9889551  60.6690627  30.4666619  31.0590834
  69.5630835  42.1573853  34.6809431  69.4155797  41.2290561  34.8617001
  70.3884328  42.1793944  34.1966506  63.4293079  30.8091920  30.5389923
  63.7689152  31.3377841  29.8168531  63.8765200  31.1472326  31.3148489
  66.1236520  29.1928971  39.9892991  65.7833340  28.3936784  40.3913671
  65.4175526  29.4930682  39.4169824  66.7752992  26.2778283  38.4420314
  67.5979061  25.8038762  38.3199204  67.0191055  27.0568767  38.9419000
  65.4161226  29.3066542  28.7383215  66.1369589  29.6847795  28.2346932
  64.7926530  30.0255419  28.8418193  69.5592349  30.0111691  29.6741548
  69.7755964  30.8936329  29.3730376  69.0786416  29.6197904  28.9447190
  64.2991571  32.9697404  36.2512292  64.1536151  33.2837707  37.1436574
  63.8216774  33.5882304  35.6983191  66.1587953  29.9599952  36.2993182
  66.1449522  29.0641045  35.9625480  66.8760382  29.9670616  36.9331468
  68.0114084  30.3937292  38.3446309  67.7531862  31.3154363  38.3430640
  67.4799125  29.9967727  39.0346773  58.7737233  35.5102748  39.1899954
  58.2290701  36.2862556  39.3220228  59.6516583  35.8573553  39.0319075
  65.5624849  28.8414332  31.5680752  65.6840761  27.9130978  31.7671640
  65.2726892  28.8553018  30.6559067  68.4316040  26.5269243  34.7047472
  68.4537737  26.5908576  33.7499451  68.8484099  25.6873751  34.8987978
  59.5603255  34.6372645  42.0830110  58.8184991  34.7855280  42.6694741
  59.2395999  34.8980910  41.2196860  67.5046917  44.1788623  41.8810500
  67.8134044  43.9337770  42.7533200  68.3022399  44.3835261  41.3929371
  67.5267529  46.3326532  34.1115877  67.0872520  45.8402911  34.8048734
  68.2775646  45.7899500  33.8707952  60.0059868  42.5238073  34.1140505
  60.8317888  42.2241845  33.7339149  59.6553920  41.7545696  34.5630294
  64.9741401  41.8764542  36.1838179  64.3521411  41.2135247  35.8840406
  65.6446268  41.9025673  35.5011826  58.2068473  40.4424400  35.0729439
  57.3700382  40.0146574  34.8913440  58.1792119  40.6356843  36.0100230
  65.0465929  30.3546330  45.7770685  65.0954084  31.2308452  45.3948454
  65.5888443  29.8123723  45.2042328  64.5354908  40.4268465  29.6596639
  64.6843029  41.1103929  29.0063312  65.3421352  40.4073555  30.1746095
  67.2765217  31.1077702  42.5317043  66.4068527  31.4011268  42.2599632
  67.5124698  31.6918147  43.2524307  62.2907541  36.4533643  30.6657708
  62.0453583  35.5495973  30.8637918  62.4603456  36.4550793  29.7237186
  69.9804251  27.3257319  40.0482464  70.4986195  28.0618346  39.7228952
  69.6259384  27.6321312  40.8829223  61.5603189  32.1862000  28.1643870
  60.8672434  32.2606355  27.5083906  61.3154941  31.4222344  28.6865386
  68.0350314  42.9216595  27.1308387  67.4624281  43.5406783  26.6778858
  68.6083108  43.4715957  27.6648309  68.4197112  34.2577408  24.4724439
  69.3656217  34.1283616  24.5412857  68.0411357  33.5192070  24.9493867
  68.3035805  38.3095154  45.9325096  69.2238814  38.4873753  46.1265143
  68.2685388  37.3651200  45.7804795  66.6040030  32.1827385  24.4079324
  65.6971485  31.8860497  24.4842038  66.8816011  31.8857203  23.5413611
  61.2997877  36.2196189  38.5747877  61.5183887  37.1513297  38.5935911
  61.7123651  35.8604163  39.3602681  68.2202095  26.7264274  30.5623566
  67.4102824  26.3811359  30.9378812  68.9086512  26.4171818  31.1511177
  70.1492644  25.8042321  32.1847862  70.7023682  26.2237774  32.8437885
  70.3862730  24.8778069  32.2270818  66.1725743  31.7929395  47.9650626
  66.0722470  32.7423752  47.8962717  65.9547285  31.4647634  47.0926696
  65.3738814  29.0414320  24.5491304  66.2357978  29.3669218  24.8087121
  65.5589158  28.2545816  24.0364369  66.0357013  35.2226534  46.7815688
  65.5524095  36.0226894  46.9879577  66.1217952  35.2334478  45.8283132
  61.9630350  39.1131068  38.8184122  62.9173604  39.0815011  38.7514053
  61.7642874  38.6521692  39.6334348  62.5529732  37.6832184  41.3854919
  63.3722621  38.1776263  41.4089757  62.8266540  36.7664152  41.3572487
  60.3180579  44.6550688  35.8354319  60.1835047  43.8951089  35.2692318
  59.9012641  45.3791588  35.3683108  63.4749705  45.5520005  36.0472762
  63.3582089  46.4965437  35.9451452  62.6542151  45.2493566  36.4358561
  57.8064647  32.0170318  42.0847116  58.4523510  31.5069272  42.5734341
  57.5981798  32.7539000  42.6590542  66.3268257  26.2810363  27.8371013
  66.3146927  27.2252203  27.9939283  67.2191679  26.0980508  27.5430474
  64.5004219  46.2048267  39.2628691  65.4031466  46.2371877  39.5795185
  64.2741589  45.2748718  39.2775026  66.2557821  44.9579253  35.9238769
  65.3053452  44.9581115  35.8103141  66.5590307  44.2111988  35.4074804
  70.1420377  22.8753139  32.0916949  69.3752772  22.3211626  32.2373632
  70.5531082  22.9475008  32.9531101  62.1462138  29.1637935  46.1822131
  63.0093599  28.8074740  46.3925455  61.5727548  28.8251830  46.8697535
  69.0045571  48.1900172  38.1707766  69.2553610  49.0747182  38.4365342
  69.5405120  48.0104774  37.3982858  69.6354613  52.3391164  31.8625242
  70.4729835  52.7488173  31.6458950  69.8132881  51.3990607  31.8325436
  69.6580784  49.6781880  32.5335976  69.4605184  49.0851240  31.8087042
  69.1027448  49.3734090  33.2511915  66.2180615  51.3632075  34.7003721
  66.9051655  51.0493805  34.1124737  66.0628744  52.2673440  34.4270973
  65.7948591  49.4432668  36.9721188  65.8332691  48.9096259  37.7658307
  65.2888884  48.9167874  36.3532166  69.4257169  48.1696770  30.0475120
  69.7210610  47.2607449  29.9942174  68.5245205  48.1484510  29.7256122
  69.6130987  50.8394666  39.1899954  69.0684455  51.6154474  39.3220228
  70.4910337  51.1865471  39.0319075  70.3997009  49.9664562  42.0830110
  69.6578745  50.1147198  42.6694741  70.0789753  50.2272828  41.2196860
  69.0462228  55.7716317  35.0729439  68.2094136  55.3438492  34.8913440
  69.0185873  55.9648761  36.0100230  68.3611724  48.8325666  34.8578371
  68.0414509  47.9790974  34.5652745  67.8145153  49.0474244  35.6136338
  68.2299984  52.4528577  36.8271492  67.5363456  52.0382530  36.3141447
  68.9772975  52.4949114  36.2304911  70.1436727  52.3846831  34.7037507
  70.1207415  52.4834518  33.7519390  70.4537363  53.2311982  35.0254673
  68.6458401  47.3462236  42.0847116  69.2917265  46.8361190  42.5734341
  68.4375552  48.0830917  42.6590542  54.2650422   7.4823206  18.5177514
  54.1874452   8.4331031  18.5965994  53.6612066   7.1369079  19.1752440
  52.9244389   4.9924727  25.8944074  53.4751814   4.8641791  25.1221068
  52.0855865   5.2919616  25.5438967  57.3376167   7.0819238  15.8885856
  57.5127922   6.6107281  16.7031478  56.6508955   7.7085004  16.1167116
  51.9037252  10.2308600  22.6625716  52.1433850  10.8627124  23.3404734
  51.0606448   9.8796640  22.9491075  56.4165114   6.0387723  25.0667220
  56.3435285   6.8442694  25.5786524  55.9742507   6.2379689  24.2415241
  52.3782084   6.2556603  19.9924494  51.7092459   6.7402730  19.5088534
  52.2394954   6.5025823  20.9067873  56.5187353   8.2900346  26.5907153
  57.0705661   8.4531968  27.3556238  56.8593546   8.8804784  25.9187178
  56.6873776   8.0096737  20.8361184  56.2478766   7.5173116  21.5294040
  57.4381893   7.4669705  20.5953259  49.1666115   4.2008278  20.8385812
  49.9924135   3.9012050  20.4584455  48.8160167   3.4315901  21.2875600
  49.4786826   6.3320893  22.5599626  49.3441294   5.5721294  21.9937624
  49.0618888   7.0561792  22.0928415  52.6355952   7.2290210  22.7718069
  52.5188336   8.1735642  22.6696759  51.8148398   6.9263771  23.1603868
  53.6610466   7.8818472  25.9873997  54.5637713   7.9142082  26.3040492
  53.4347836   6.9518922  26.0020333  55.4164068   6.6349458  22.6484076
  54.4659699   6.6351320  22.5348448  55.7196554   5.8882193  22.1320110
  67.9606468  12.4237425  23.6491363  67.6224979  12.3078489  22.7611898
  68.8296236  12.0228590  23.6292369  63.8193283  14.2772901  19.6388254
  63.2558149  14.1862838  18.8704542  63.7045678  13.4572805  20.1190746
  68.4426251  13.5772276  29.6077568  68.4314891  13.1825075  28.7358072
  68.6046890  12.8438349  30.2011340  61.3657715  15.7724093  22.4772474
  62.1579007  15.4314917  22.0618774  61.6054365  15.8819068  23.3974628
  63.3248469  15.0333006  15.3489853  64.0979345  14.4861993  15.2102729
  63.6773868  15.8977255  15.5604314  65.1633512  16.3609388  28.5556752
  64.8723378  17.2655019  28.4403419  65.7990496  16.4025916  29.2700822
  66.0889719  13.7386237  25.1458112  66.6853291  13.5142259  24.4315075
  66.1464690  12.9970982  25.7483560  67.7242577  12.5563925  18.8879367
  67.3600784  12.0294546  19.5992289  68.5809693  12.1662394  18.7145853
  70.1223397  16.0470804  25.5506546  69.8224120  16.9495842  25.4422353
  69.7774456  15.7802987  26.4027699  63.5735878  12.4984600  21.5843250
  62.6486375  12.3660815  21.7920942  63.8220292  13.2778820  22.0813193
  60.9344689  12.1417874  22.4187040  61.0637071  12.3952353  23.3326451
  60.2542141  12.7345582  22.0991695  65.1044177  22.8115124  18.5177514
  65.0268206  23.7622949  18.5965994  64.5005820  22.4660996  19.1752440
  67.5961406   9.9842989  31.1738881  66.8194741  10.5436910  31.1641745
  68.2351970  10.4699772  31.6953751  65.8507779  12.7928443  30.7356848
  66.5922463  13.3313487  30.4591671  65.1444764  13.4194732  30.8928399
  67.2019895  15.2333182  20.3531383  67.6658240  15.5120885  19.5636006
  66.9376693  14.3316627  20.1704474  64.0943976  14.7804663  23.2911146
  64.6645333  15.2091932  22.6528631  64.6852088  14.4987248  23.9895332
  66.1388781  11.3556334  17.1620948  66.8412824  11.8077378  17.6294875
  65.8069409  10.7140153  17.7900841  64.5869143   9.9468091  31.5372158
  63.9567803  10.6284372  31.7707554  64.4805230   9.8351173  30.5925296
  59.8814115   9.6139887  22.4638082  59.0913169   9.8697416  21.9878192
  60.3725362  10.4288225  22.5690122  61.8328860   9.9784466  19.4221559
  61.0360024  10.0903160  19.9405054  61.6054453  10.3171118  18.5562449
  67.6634528  16.5029169  27.3704073  67.7278960  16.9649577  28.2062245
  66.9545452  15.8726534  27.4986383  58.1651818   9.8670377  24.8953073
  58.4159856  10.7517387  25.1610649  58.7011366   9.6874979  24.1228164
  67.3782546  18.1697277  17.2383053  67.2428220  19.0148813  17.6667901
  67.9192358  18.3716555  16.4748987  60.8311943  15.6872715  17.8110979
  61.3436464  16.4815965  17.9616543  61.4834656  14.9899005  17.7444580
  62.6406828  18.8038471  19.8933732  62.8173456  19.7256436  19.7054716
  63.4363661  18.4896890  20.3228112  61.9259184  10.8503103  29.7695895
  61.8112699   9.9488360  30.0702994  61.0703702  11.0966800  29.4180712
  69.0051022  18.7920843  31.3683396  68.5614876  18.0057222  31.0504300
  69.6668236  18.9799994  30.7027286  63.7638143  20.3216645  25.8944074
  64.3145568  20.1933708  25.1221068  62.9249619  20.6211534  25.5438967
  67.5605314  16.5867773  30.2388305  68.0933651  15.8256061  30.0087613
  67.0319395  16.2941425  30.9812460  58.7960860  14.0161369  18.5870549
  59.6336082  14.4258378  18.3704257  58.9739127  13.0760811  18.5570743
  68.9258027  15.7153765  17.7507117  68.3979388  14.9806525  17.4380355
  68.4245530  16.4928442  17.5047086  58.8187031  11.3552085  19.2581283
  58.6211431  10.7621445  18.5332349  58.2633695  11.0504295  19.9757221
  66.7983755  11.2475191  21.3775876  66.8532364  10.2949027  21.3018352
  65.9874957  11.4034630  21.8617174  64.7376114   9.8652251  19.1366255
  63.9243980  10.1646421  19.5431447  65.2335109   9.4707940  19.8540737
  66.8884692  19.8610008  21.0700519  66.8460871  20.0870854  20.1409051
  67.8047391  19.6273382  21.2186320  65.0050493  16.7373037  20.8662482
  65.7991092  16.2423357  20.6645057  64.2942186  16.2090900  20.5030188
  69.8245338  19.1191132  25.2174850  69.8782360  19.6882069  25.9852566
  68.9560119  19.2893017  24.8528887  61.3133257  10.8816118  16.9422235
  60.3830845  10.8200574  17.1592197  61.4090729  10.3592071  16.1458876
  62.7043731   8.8208688  26.6999301  63.3766784   8.6126051  26.0511950
  61.8773518   8.6230774  26.2604533  68.7833437  13.2851394  26.7761781
  69.7125497  13.4362554  26.6030749  68.3624467  13.3735415  25.9210428
  67.5821769  17.3102059  24.5460319  67.4432855  16.9420843  25.4186257
  66.7936365  17.8249698  24.3744277  68.1769921  22.4111155  15.8885856
  68.3521677  21.9399198  16.7031478  67.4902709  23.0376921  16.1167116
  69.1326984  16.6883661  21.9349157  68.7976817  16.6484431  22.8306807
  68.6330930  16.0228377  21.4619567  63.1071228  12.0951291  27.4601738
  62.9691026  11.3631530  28.0613277  64.0176152  12.0060192  27.1785926
  65.7353529  11.8071251  26.9485418  66.4453147  11.1664443  26.9072036
  65.6922837  12.0584146  27.8711598  64.4482463   8.7936469  28.7681057
  63.9119820   8.3427207  29.4202653  63.8599171   8.9282378  28.0251521
  62.7431006  25.5600518  22.6625716  62.9827605  26.1919042  23.3404734
  61.9000203  25.2088558  22.9491075  55.3786862  13.0402280  21.4249028
  56.0657902  12.7264010  20.8370043  55.2234991  13.9443644  21.1516279
  60.1821584   7.9292476  25.8534052  60.0979773   7.3218146  25.1184462
  59.3604291   8.4201495  25.8543548  67.2558868  21.3679640  25.0667220
  67.1829040  22.1734612  25.5786524  66.8136261  21.5671606  24.2415241
  67.0448648  20.6051410  18.5770041  66.2616170  21.1473091  18.6708266
  67.7441393  21.1225390  18.9764282  69.7157552  21.2666474  27.2225378
  70.4285524  21.9013939  27.1501280  69.2247580  21.3630340  26.4065380
  64.7669465  19.0160918  28.0430949  65.4678925  19.6497401  28.1960343
  64.2964580  19.3575649  27.2826589  69.5277925  21.6065219  19.9711670
  69.7100320  20.7886874  20.4339422  70.3510911  21.8232911  19.5336560
  69.8620091  20.5333404  17.2326718  70.3907857  20.0225858  16.6196880
  70.1248310  20.2175934  18.0972251  68.6158324  12.3125336  32.3549537
  67.9398961  12.2119466  33.0251912  69.4385958  12.1564550  32.8185534
  60.3637183  18.5497273  24.9762052  60.9490620  17.8040961  25.1089956
  60.1662022  18.8601230  25.8598716  63.2175839  21.5848520  19.9924494
  62.5486214  22.0694648  19.5088534  63.0788708  21.8317741  20.9067873
  54.9554838  11.1202873  23.6966495  54.9938938  10.5866464  24.4903613
  54.4495131  10.5938079  23.0777472  67.3581107  23.6192264  26.5907153
  67.9099415  23.7823885  27.3556238  67.6987301  24.2096702  25.9187178
  58.5863416   9.8466975  16.7720426  58.8816857   8.9377654  16.7187480
  57.6851451   9.8254715  16.4501429  62.1157663   7.9222972  22.7547975
  61.3944248   8.5358940  22.6155448  62.9050918   8.4580737  22.6764621
  69.5630836  19.1635976  21.4054737  69.4155799  18.2352683  21.5862307
  70.3884330  19.1856066  20.9211812  64.2991572   9.9759527  22.9757599
  64.1536153  10.2899830  23.8681880  63.8216775  10.5944427  22.4228498
  58.7737234  12.5164871  25.9145260  58.2290702  13.2924679  26.0465534
  59.6516584  12.8635675  25.7564382  59.5603256  11.6434767  28.8075417
  58.8184992  11.7917403  29.3940047  59.2396000  11.9043033  27.9442166
  67.5046919  21.1850745  28.6055807  67.8134045  20.9399892  29.4778507
  68.3022401  21.3897384  28.1174677  67.5267531  23.3388655  20.8361184
  67.0872521  22.8465034  21.5294040  68.2775648  22.7961623  20.5953259
  60.0059870  19.5300196  20.8385812  60.8317889  19.2303968  20.4584455
  59.6553922  18.7607818  21.2875600  64.9741403  18.8826664  22.9083485
  64.3521412  18.2197369  22.6085713  65.6446270  18.9087796  22.2257133
  58.2068475  17.4486522  21.7974745  57.3700383  17.0208697  21.6158747
  58.1792120  17.6418966  22.7345536  64.5354910  17.4330588  16.3841946
  64.6843030  18.1166052  15.7308619  65.3421353  17.4135678  16.8991402
  62.2907543  13.4595765  17.3903015  62.0453585  12.5558095  17.5883225
  62.4603457  13.4612916  16.4482493  61.5603190   9.1924123  14.8889176
  60.8672435   9.2668478  14.2329212  61.3154942   8.4284466  15.4110693
  68.0350315  19.9278718  13.8553693  67.4624282  20.5468905  13.4024165
  68.6083109  20.4778080  14.3893615  68.3035806  15.3157277  32.6570403
  69.2238816  15.4935876  32.8510449  68.2685389  14.3713322  32.5050102
  57.5217971  10.5095871  21.5823677  57.2020756   9.6561179  21.2898051
  56.9751399  10.7244449  22.3381645  61.2997879  13.2258312  25.2993184
  61.5183889  14.1575419  25.3181218  61.7123653  12.8666286  26.0847988
  57.3906231  14.1298782  23.5516799  56.6969703  13.7152735  23.0386753
  58.1379222  14.1719319  22.9550218  66.0357014  12.2288656  33.5060994
  65.5524096  13.0289016  33.7124883  66.1217953  12.2396601  32.5528438
  59.3042974  14.0617036  21.4282814  59.2813662  14.1604723  20.4764697
  59.6143610  14.9082187  21.7499980  61.9630352  16.1193191  25.5429428
  62.9173605  16.0877133  25.4759360  61.7642875  15.6583815  26.3579654
  62.5529734  14.6894307  28.1100226  63.3722623  15.1838386  28.1335063
  62.8266541  13.7726275  28.0817793  60.3180580  21.6612810  22.5599626
  60.1835048  20.9013211  21.9937624  59.9012643  22.3853710  22.0928415
  63.4749706  22.5582127  22.7718069  63.3582090  23.5027560  22.6696759
  62.6542153  22.2555689  23.1603868  57.8064648   9.0232441  28.8092423
  58.4523512   8.5131395  29.2979648  57.5981799   9.7601122  29.3835848
  64.5004220  23.2110389  25.9873997  65.4031467  23.2433999  26.3040492
  64.2741590  22.2810840  26.0020333  66.2557822  21.9641376  22.6484076
  65.3053453  21.9643237  22.5348448  66.5590309  21.2174110  22.1320110
  69.0045572  25.1962295  24.8953073  69.2553611  26.0809305  25.1610649
  69.5405121  25.0166897  24.1228164  69.6354614  29.3453287  18.5870549
  70.4729836  29.7550295  18.3704257  69.8132882  28.4052729  18.5570743
  69.6580785  26.6844002  19.2581283  69.4605185  26.0913363  18.5332349
  69.1027449  26.3796212  19.9757221  66.2180616  28.3694197  21.4249028
  66.9051656  28.0555928  20.8370043  66.0628745  29.2735562  21.1516279
  65.7948593  26.4494791  23.6966495  65.8332692  25.9158382  24.4903613
  65.2888885  25.9229996  23.0777472  69.4257170  25.1758893  16.7720426
  69.7210611  24.2669571  16.7187480  68.5245206  25.1546632  16.4501429
  69.6130988  27.8456789  25.9145260  69.0684457  28.6216597  26.0465534
  70.4910338  28.1927593  25.7564382  70.3997010  26.9726685  28.8075417
  69.6578746  27.1209320  29.3940047  70.0789755  27.2334951  27.9442166
  69.0462229  32.7778440  21.7974745  68.2094137  32.3500614  21.6158747
  69.0185875  32.9710883  22.7345536  68.3611726  25.8387788  21.5823677
  68.0414510  24.9853096  21.2898051  67.8145154  26.0536366  22.3381645
  68.2299986  29.4590700  23.5516799  67.5363457  29.0444652  23.0386753
  68.9772977  29.5011236  22.9550218  70.1436728  29.3908953  21.4282814
  70.1207416  29.4896641  20.4764697  70.4537365  30.2374104  21.7499980
  68.6458402  24.3524358  28.8092423  69.2917266  23.8423312  29.2979648
  68.4375554  25.0893040  29.3835848   6.1154231  35.4647876  63.5393915
   6.7532641  35.3454623  62.8357255   5.9975074  36.4128720  63.5981867
   2.9243937  35.4175304  63.4755440   2.5862448  35.3016368  62.5875975
   3.7933705  35.0166469  63.4556446   4.3630311  40.9381748  54.7766796
   3.7118291  41.5235828  54.3900810   5.1574674  41.4687943  54.8361833
   5.6695499  33.1899329  60.6147123   6.4558588  32.7718753  60.2637540
   5.9334203  34.0945422  60.7828772   5.8405577  38.6272180  55.3135780
   5.2051409  38.7006806  56.0256685   5.5102983  39.2165779  54.6354859
  11.0703926  33.1274563  61.5180102  11.8029098  32.5573780  61.7517931
  10.3143282  32.7396163  61.9586607   2.6880046  35.5501804  58.7143444
   2.3238253  35.0232425  59.4256366   3.5447162  35.1600273  58.5409930
   2.3285533  30.5791704  53.7104793   2.4959935  31.4471940  54.0775264
   2.1382702  30.7418986  52.7866082   8.4858010  31.5591223  63.0568060
   7.5774887  31.4906631  62.7626821   8.4345606  32.0363168  63.8849886
   2.3074754  33.0349361  54.6951460   2.1874379  33.4806412  55.5336940
   1.6127342  33.3834679  54.1364998   8.0059820  33.5070835  55.5231794
   8.9177676  33.7398221  55.3479491   7.4969467  34.0907879  54.9606872
   6.6129402  38.4896653  62.9145375   5.9838265  38.6542367  62.2121443
   6.2255064  38.9038263  63.6856339  10.4918634  39.4251091  60.2689739
   9.8069672  39.8049992  59.7186772  10.5762484  40.0346418  61.0021687
   7.7469566  37.0711050  66.8685082   7.9586461  37.7142810  66.1919463
   7.6999314  36.2373366  66.4007012   2.1657364  38.2271061  60.1795460
   2.6295710  38.5058764  59.3900083   1.9014162  37.3254506  59.9968551
   1.1026250  34.3494213  56.9885025   1.8050294  34.8015257  57.4558952
   0.7706879  33.7078032  57.6164918   8.8615394  39.9483005  65.0407440
   9.6832838  39.5463193  64.7590121   8.8577797  39.8451239  65.9923555
  16.9521387  36.2921754  61.3892411  16.1985095  35.7229152  61.2336416
  17.0868928  36.2584418  62.3363046   2.3420015  41.1635156  57.0647130
   2.2065690  42.0086692  57.4931978   2.8829827  41.3654434  56.3013064
   5.6562761  34.6774329  54.1018459   5.1409385  35.4478934  54.3406846
   5.3840070  34.0039465  54.7251521   3.2409872  29.5224030  59.1603697
   2.3851469  29.1330880  58.9809336   3.6536824  29.6015991  58.3003483
  10.6297035  37.4306684  56.0371633   9.8526478  37.0917843  55.5926795
  11.3088516  37.4359307  55.3626598   5.4449064  32.5501421  55.9278240
   5.1399200  32.8647570  56.7788383   6.3979506  32.6282841  55.9705573
   3.8895496  38.7091645  57.5771194   3.3616858  37.9744404  57.2644432
   3.3882999  39.4866321  57.3311163   8.8688342  36.9040665  62.6938241
   8.2112017  37.5939926  62.7818369   9.6728741  37.2937097  63.0372227
   7.6793801  35.2585038  60.7442182   8.1925683  35.8915030  61.2463892
   8.3295025  34.6586233  60.3785542   2.0348096  36.5271855  50.5806167
   1.1275158  36.2961108  50.7797316   2.5319128  35.7309474  50.7680149
   4.9416175  45.2369362  53.5002853   4.2677874  45.5401059  54.1087811
   5.3281997  46.0398442  53.1508310   4.1574632  32.7334493  62.9900523
   3.2397193  32.9549440  62.8322211   4.5734776  32.8080804  62.1312230
   4.9409680  34.1325909  58.1203203   5.6881499  34.6447306  57.8110325
   5.2101269  33.8109962  58.9807597   3.2136330  36.6284450  55.1030157
   2.3047549  36.3443482  55.2002627   3.2431414  37.0483528  54.2433464
   8.4455597  40.2391039  58.8721325   7.9917924  39.3981949  58.9286515
   7.8149564  40.8752438  59.2096105   7.3888517  31.1683025  60.1021992
   6.6511274  30.6560411  60.4332235   7.6415290  30.7283407  59.2905269
   6.8888536  42.0767536  59.8071143   7.1811511  42.6372593  59.0883509
   7.3987157  42.3696097  60.5624302   1.7621224  34.2413070  61.2039953
   1.8169834  33.2886907  61.1282429   0.9512426  34.3972509  61.6881251
   2.9112418  38.1693193  52.4418236   2.4731848  37.4529052  51.9823873
   3.6522858  38.3969308  51.8803327   1.8522162  42.8547887  60.8964596
   1.8098340  43.0808733  59.9673128   2.7684861  42.6211262  61.0450397
  11.0285532  36.4450390  58.4994554  10.8903431  36.6351986  57.5715744
  10.6721751  37.2069773  58.9562606  11.0554912  38.5126917  63.5105826
  11.4891419  38.4202206  64.3588880  11.7686493  38.4884418  62.8725842
  11.9170462  38.5550618  66.0438711  12.1106352  39.4596429  66.2897986
  11.8171080  38.0958037  66.8777296   3.1407390  45.4049034  55.7149933
   3.3159146  44.9337078  56.5295555   2.4540178  46.0314801  55.9431193
   4.0964454  39.6821541  61.7613234   3.7614286  39.6422311  62.6570884
   3.5968399  39.0166257  61.2883644   7.0323645  37.0277575  52.0350294
   6.4152816  36.3024403  51.9383346   6.5640134  37.7886935  51.6917368
   8.6895184  39.7016067  67.9270054   7.8021963  39.3641989  68.0496452
   9.2593735  38.9699098  68.1638819   2.0086117  43.5989290  58.4034118
   1.2253639  44.1410970  58.4972343   2.7078862  44.1163269  58.8028359
   5.3182767  29.4083919  61.0468324   5.8151467  28.6553881  60.7269394
   4.5469749  29.4448236  60.4811533  13.1712525  35.1124285  62.6886615
  13.1602401  35.9949000  62.3180548  12.3029904  34.7595835  62.4941152
   6.4012548  38.1655606  58.6206747   5.4668827  38.2857069  58.4511451
   6.5789216  37.2628073  58.3566757   1.9017736  31.5501302  60.7740008
   1.5315524  30.9972342  61.4620914   2.3976828  30.9459436  60.2215008
   9.7885099  34.0072926  59.1556781  10.2545552  34.8400917  59.0817084
  10.2392600  33.5417907  59.8602040   7.8561330  40.3516747  56.1542933
   8.1321174  40.2373341  57.0636807   6.9865829  39.9534232  56.1155106
   7.5308221  34.5643405  65.6947577   6.8779671  34.8119312  65.0400029
   7.9088600  33.7507543  65.3610054   4.4915394  44.6003098  59.7975747
   4.6737789  43.7824754  60.2603499   5.3148380  44.8170790  59.3600637
   4.8257560  43.5271283  57.0590795   5.3545326  43.0163737  56.4460957
   5.0885780  43.2113813  57.9236328   7.5221872  42.3621139  65.0314462
   6.5752208  42.2426490  64.9592789   7.8704645  41.4743637  65.1140723
   4.5268305  42.1573855  61.2318814   4.3793268  41.2290562  61.4126384
   5.3521799  42.1793946  60.7475889   8.1302427  42.9802414  62.3183687
   9.0548975  42.7745275  62.1808138   7.9617731  42.7318815  63.2273028
   4.5229820  30.0111693  56.2250931   4.7393434  30.8936330  55.9239760
   4.0423887  29.6197906  55.4956573   7.9197743  43.4988081  57.6745778
   8.0934621  42.9334504  56.9219631   8.4126635  44.2988976  57.4925268
  13.7737135  36.2624504  59.2936078  14.2168281  35.5131829  58.8955201
  12.8963645  36.2534640  58.9109810   8.9072916  42.8154845  54.7742677
   9.6023821  43.4361538  54.9929991   9.2496066  41.9650197  55.0495055
  10.8064339  40.2654551  56.3030007  11.3315663  40.6041824  55.5779327
  10.7186692  39.3301566  56.1193142  12.1174317  40.1676863  69.1655955
  11.8259125  40.5306843  70.0019416  11.5046448  39.4543871  68.9869288
  13.3169999  37.7329742  61.6858526  14.1516891  38.1719546  61.8496086
  13.4529128  37.2568396  60.8666771  10.3661505  35.2909477  67.6336013
  10.8415627  35.4837123  66.8254865   9.4427071  35.3468663  67.3879397
   2.9987784  42.9216597  53.6817770   2.4261752  43.5406784  53.2288242
   3.5720578  43.4715959  54.2157692   6.2185044  43.2053747  54.8126353
   7.1515717  43.1399309  55.0159228   6.1308257  44.0410014  54.3540885
   8.8473061  42.5219618  51.7730300   8.7686692  42.1879481  52.6666058
   9.6682728  43.0141386  51.7721772  11.5451252  35.3881357  64.9806619
  11.5127572  34.4497358  65.1666303  12.1551876  35.4665394  64.2472444
   3.3834583  34.2577410  51.0233823   4.3293688  34.1283618  51.0922241
   3.0048828  33.5192072  51.5003251  11.6945741  32.1792400  65.0264902
  11.1784789  31.3950857  64.8394831  12.5785689  31.8511117  65.1911421
   9.3556467  25.9233416  60.9860715   9.1581289  25.6148504  61.8704047
   9.9656173  26.6495055  61.1158644  17.3627802  36.4497364  64.1212655
  18.0931190  36.1882652  64.6820359  16.7534747  35.7126086  64.1614723
  15.4443099  34.5905226  64.7187107  14.7176263  34.4561191  64.1103598
  15.0290386  34.8982055  65.5243825   1.5677500  32.1827386  50.9588708
   0.6608955  31.8860499  51.0351422   1.8453481  31.8857204  50.0922994
   3.1839566  26.7264276  57.1132949   2.3740294  26.3811361  57.4888195
   3.8723983  26.4171820  57.7020561   5.1130114  25.8042323  58.7357246
   5.6661153  26.2237776  59.3947269   5.3500200  24.8778071  58.7780202
   8.4908921  27.9142848  58.2435910   7.9107590  28.5727652  57.8613963
   8.2244854  27.0920193  57.8323328   6.9412488  27.3147906  60.4457230
   7.4412266  27.4264440  59.6371549   7.5848095  27.0108959  61.0858039
   7.2733799  30.0742938  57.2992258   6.3859654  30.3592589  57.0812453
   7.6887788  29.9136702  56.4519535  10.6248335  30.0989459  61.0146598
  11.4008725  30.5885912  61.2871214   9.8996470  30.5247514  61.4718467
  13.0620894  30.8117079  62.0720538  13.6565385  30.5712815  61.3613847
  13.1347478  30.0924209  62.6994075   6.4177013  39.8387613  51.3940278
   7.1212863  40.0437616  52.0097934   5.6939661  40.4064375  51.6589362
   7.2474823  35.5897474  57.5142549   7.1910024  36.0466026  56.6750181
   7.8003165  34.8288159  57.3365391  11.0579629  31.3787206  58.3392668
  10.8016563  30.9783842  59.1700876  10.4332497  32.0931000  58.2142807
  15.3691967  34.1183279  60.8463959  14.8091525  34.1876469  61.6195522
  14.7635470  33.9424264  60.1263456   8.3263710  40.2770142  53.4438738
   9.1609314  39.8451341  53.2616213   8.1648053  40.1052156  54.3715633
   7.9809602  36.7802256  54.8095078   7.9258406  36.6146527  53.8683522
   7.3555658  37.4878288  54.9657267   1.2905728  26.2810365  54.3880396
   1.2784398  27.2252204  54.5448667   2.1829150  26.0980510  54.0939857
  16.9547985  50.7939793  63.5393915  17.5926395  50.6746541  62.8357255
  16.8368828  51.7420637  63.5981867  13.7637691  50.7467221  63.4755440
  13.4256203  50.6308286  62.5875975  14.6327460  50.3458387  63.4556446
   9.6224507  52.6002698  59.4652331   9.0589372  52.5092635  58.6968619
   9.5076902  51.7802602  59.9454823  15.2024066  56.2673666  54.7766796
  14.5512046  56.8527746  54.3900810  15.9968429  56.7979860  54.8361833
   9.1279693  53.3562803  55.1753930   9.9010569  52.8091790  55.0366806
   9.4805092  54.2207052  55.3868391  11.4645971  49.5155469  52.8072380
  11.7171492  48.9936990  52.0455843  10.5270530  49.3521614  52.9099064
  16.5089254  48.5191247  60.6147123  17.2952343  48.1010670  60.2637540
  16.7727958  49.4237339  60.7828772  16.6799331  53.9564097  55.3135780
  16.0445164  54.0298724  56.0256685  16.3496737  54.5457696  54.6354859
  21.9097681  48.4566480  61.5180102  22.6422853  47.8865697  61.7517931
  21.1537036  48.0688081  61.9586607  11.1842260  51.4183575  55.0096755
  11.0678518  50.7428478  55.6777839  11.2944519  50.9315949  54.1928908
  13.5273801  50.8793722  58.7143444  13.1632008  50.3524343  59.4256366
  14.3840916  50.4892191  58.5409930  19.4323101  42.1688054  65.9774710
  19.1006426  43.0383465  65.7535925  18.8368715  41.8524338  66.6568741
  13.1679287  45.9083622  53.7104793  13.3353690  46.7763858  54.0775264
  12.9776457  46.0710903  52.7866082   9.3767102  50.8214397  61.4107328
   8.4517599  50.6890611  61.6185019   9.6251515  51.6008617  61.9077270
  19.3251764  46.8883141  63.0568060  18.4168642  46.8198549  62.7626821
  19.2739360  47.3655086  63.8849886  13.1468508  48.3641279  54.6951460
  13.0268134  48.8098330  55.5336940  12.4521097  48.7126597  54.1364998
  21.1913411  45.0899579  64.8345934  20.5487791  45.3832112  64.1885729
  20.6868339  44.9752499  65.6399131  18.8453575  48.8362752  55.5231794
  19.7571431  49.0690139  55.3479491  18.3363222  49.4199796  54.9606872
  13.4825412  48.1959987  66.5326643  14.3286607  48.6199400  66.6761292
  13.4224050  47.5393611  67.2265206  17.4523157  53.8188571  62.9145375
  16.8232019  53.9834285  62.2121443  17.0648819  54.2330180  63.6856339
  21.3312389  54.7543009  60.2689739  20.6463427  55.1341910  59.7186772
  21.4156238  55.3638335  61.0021687  16.6324858  45.8564355  68.1907817
  16.3885789  46.6106416  67.6542092  16.9084788  46.2349703  69.0255064
  18.5863320  52.4002968  66.8685082  18.7980216  53.0434727  66.1919463
  18.5393069  51.5665284  66.4007012  16.1889549  45.0120788  63.7721654
  15.3274028  45.3102042  64.0638392  16.2151984  45.2291187  62.8402687
  13.0051119  53.5562979  60.1795460  13.4689464  53.8350682  59.3900083
  12.7407917  52.6546423  59.9968551  11.9420005  49.6786131  56.9885025
  12.6444048  50.1307175  57.4558952  11.6100633  49.0369950  57.6164918
  19.7009148  55.2774923  65.0407440  20.5226592  54.8755110  64.7590121
  19.6971551  55.1743157  65.9923555   7.6360084  48.3014263  59.2485636
   6.8391247  48.4132957  59.7669131   7.4085676  48.6400915  58.3826526
  27.7915141  51.6213671  61.3892411  27.0378850  51.0521070  61.2336416
  27.9262683  51.5876336  62.3363046  13.1813769  56.4927074  57.0647130
  13.0459444  57.3378610  57.4931978  13.7223582  56.6946351  56.3013064
   6.6343167  54.0102512  57.6375056   7.1467687  54.8045762  57.7880620
   7.2865880  53.3128802  57.5708657  16.5306233  40.0157636  65.5946024
  16.1870502  40.9059277  65.5185135  16.8985196  39.8259293  64.7315609
  16.4956516  50.0066247  54.1018459  15.9803139  50.7770851  54.3406846
  16.2233824  49.3331383  54.7251521  14.0803627  44.8515948  59.1603697
  13.2245223  44.4622798  58.9809336  14.4930578  44.9307908  58.3003483
  15.6102773  42.3862291  63.5595257  15.1067569  42.3492426  62.7463062
  15.9033380  43.2955034  63.6191914  11.8545659  42.4701021  62.5661439
  12.7198656  42.2743829  62.2067328  11.9223168  42.2411372  63.4930796
  21.4690790  52.7598601  56.0371633  20.6920233  52.4209761  55.5926795
  22.1482271  52.7651225  55.3626598  16.2842819  47.8793339  55.9278240
  15.9792954  48.1939488  56.7788383  17.2373261  47.9574759  55.9705573
  14.7289251  54.0383562  57.5771194  14.2010612  53.3036322  57.2644432
  14.2276753  54.8158239  57.3311163  19.7082097  52.2332583  62.6938241
  19.0505771  52.9231844  62.7818369  20.5122496  52.6229015  63.0372227
   9.4607978  44.7003228  59.9377806  10.0351730  44.4778410  59.2050999
  10.0478961  44.7691923  60.6906407  18.5187556  50.5876955  60.7442182
  19.0319437  51.2206947  61.2463892  19.1688779  49.9878151  60.3785542
   9.7877565  46.7307689  53.9573691   8.9514878  47.0682376  54.2782966
   9.6482335  46.5956669  53.0200828  11.7630646  41.5744477  58.6652875
  11.1095058  41.2593495  58.0409490  11.7211120  40.9520218  59.3912698
  12.8741851  51.8563772  50.5806167  11.9668913  51.6253026  50.7797316
  13.3712883  51.0601392  50.7680149  15.7809930  60.5661280  53.5002853
  15.1071629  60.8692976  54.1087811  16.1675752  61.3690360  53.1508310
  14.9968386  48.0626411  62.9900523  14.0790948  48.2841358  62.8322211
  15.4128530  48.1372721  62.1312230  15.7803434  49.4617827  58.1203203
  16.5275253  49.9739224  57.8110325  16.0495024  49.1401879  58.9807597
  14.0530084  51.9576367  55.1030157  13.1441304  51.6735400  55.2002627
  14.0825168  52.3775446  54.2433464  19.2849352  55.5682957  58.8721325
  18.8311679  54.7273867  58.9286515  18.6543318  56.2044355  59.2096105
  18.2282271  46.4974943  60.1021992  17.4905028  45.9852329  60.4332235
  18.4809045  46.0575324  59.2905269  17.7282291  57.4059454  59.8071143
  18.0205265  57.9664511  59.0883509  18.2380912  57.6988015  60.5624302
  18.3293899  39.2751195  60.6963762  18.6352775  38.4148558  60.4089677
  19.0546503  39.8668815  60.4962756  12.6014978  49.5704988  61.2039953
  12.6563588  48.6178824  61.1282429  11.7906180  49.7264427  61.6881251
  13.7506172  53.4985111  52.4418236  13.3125602  52.7820970  51.9823873
  14.4916613  53.7261226  51.8803327  10.5407338  48.1882048  58.9630332
   9.7275204  48.4876218  59.3695524  11.0366332  47.7937736  59.6804814
  12.6915916  58.1839805  60.8964596  12.6492095  58.4100651  59.9673128
  13.6078615  57.9503179  61.0450397  16.1381550  48.6523872  67.7945225
  16.4930938  48.8795345  68.6539691  16.7853681  48.9842249  67.1722481
  21.8679287  51.7742308  58.4994554  21.7297185  51.9643904  57.5715744
  21.5115506  52.5361691  58.9562606  10.0321413  45.7600403  64.5791567
  10.6720792  45.6189162  63.8814530   9.1998944  45.4734917  64.2030169
  21.8948666  53.8418835  63.5105826  22.3285173  53.7494124  64.3588880
  22.6080247  53.8176335  62.8725842  10.8081717  55.0602834  60.6926559
  11.6022315  54.5653154  60.4909134  10.0973409  54.5320697  60.3294265
   7.1164480  49.2045915  56.7686312   6.1862068  49.1430371  56.9856274
   7.2121952  48.6821868  55.9722953   7.0350029  45.7300728  59.3564553
   7.2956847  46.6446061  59.2473714   7.8567202  45.2625171  59.5061166
  22.7564216  53.8842536  66.0438711  22.9500106  54.7888346  66.2897986
  22.6564834  53.4249955  66.8777296  14.4100527  43.7700426  68.5429039
  13.7628442  44.4690376  68.4493515  15.1801542  44.2036570  68.9105287
  14.5864661  51.6081191  66.6025858  15.5156721  51.7592351  66.4294826
  14.1655691  51.6965212  65.7474505  13.9801145  60.7340952  55.7149933
  14.1552901  60.2628995  56.5295555  13.2933933  61.3606718  55.9431193
  14.9358208  55.0113458  61.7613234  14.6008041  54.9714228  62.6570884
  14.4362154  54.3458174  61.2883644  17.8717400  52.3569493  52.0350294
  17.2546570  51.6316321  51.9383346  17.4033888  53.1178853  51.6917368
   9.6615946  46.5754917  51.1571598   8.7845412  46.4543718  50.7933844
  10.1373699  45.7840995  50.9050486  19.5288939  55.0307985  67.9270054
  18.6415717  54.6933907  68.0496452  20.0987490  54.2991016  68.1638819
  12.8479872  58.9281207  58.4034118  12.0647394  59.4702887  58.4972343
  13.5472617  59.4455187  58.8028359  16.1576522  44.7375837  61.0468324
  16.6545221  43.9845799  60.7269394  15.3863503  44.7740153  60.4811533
  24.0106279  50.4416202  62.6886615  23.9996155  51.3240918  62.3180548
  23.1423659  50.0887753  62.4941152  17.2406302  53.4947524  58.6206747
  16.3062581  53.6148986  58.4511451  17.4182971  52.5919991  58.3566757
  12.7411491  46.8793220  60.7740008  12.3709278  46.3264260  61.4620914
  13.2370583  46.2751353  60.2215008  20.6278854  49.3364843  59.1556781
  21.0939306  50.1692835  59.0817084  21.0786354  48.8709825  59.8602040
  18.6955085  55.6808665  56.1542933  18.9714929  55.5665259  57.0636807
  17.8259584  55.2826149  56.1155106  18.5995517  41.7045430  63.1947683
  17.6858596  41.9349657  63.3629890  19.0288618  41.7883874  64.0461715
  18.3701975  49.8935322  65.6947577  17.7173425  50.1411230  65.0400029
  18.7482355  49.0799460  65.3610054  15.3309149  59.9295015  59.7975747
  15.5131543  59.1116671  60.2603499  16.1542135  60.1462708  59.3600637
  15.6651314  58.8563201  57.0590795  16.1939081  58.3455655  56.4460957
  15.9279534  58.5405731  57.9236328   4.3894639  48.1696772  56.5984503
   4.6848081  47.2607451  56.5451557   3.4882675  48.1484512  56.2765506
   7.9188886  46.2452769  62.5812052   7.1975472  46.8588736  62.4419525
   8.7082142  46.7810534  62.5028698  18.3615627  57.6913056  65.0314462
  17.4145962  57.5718408  64.9592789  18.7098400  56.8035554  65.1140723
   6.1182481  45.8510870  56.7223829   5.7895187  44.9708249  56.5398935
   6.4721852  45.7958539  57.6100218  15.3662060  57.4865773  61.2318814
  15.2187022  56.5582480  61.4126384  16.1915553  57.5085863  60.7475889
   9.2324304  46.1383840  57.0899306   9.5720377  46.6669761  56.3677915
   9.6796425  46.4764246  57.8657873  18.9696182  58.3094331  62.3183687
  19.8942729  58.1037193  62.1808138  18.8011485  58.0610732  63.2273028
  11.9267745  44.5220890  66.5402374  11.5864565  43.7228703  66.9423054
  11.2206751  44.8222601  65.9679208  12.5784217  41.6070203  64.9929697
  13.4010286  41.1330681  64.8708588  12.8222280  42.3860687  65.4928384
  11.2192451  44.6358461  55.2892599  11.9400814  45.0139714  54.7856316
  10.5957755  45.3547338  55.3927577  15.3623574  45.3403610  56.2250931
  15.5787189  46.2228248  55.9239760  14.8817641  44.9489824  55.4956573
  10.1022796  48.2989323  62.8021676   9.9567376  48.6129626  63.6945957
   9.6247999  48.9174224  62.2492575  11.9619179  45.2891871  62.8502566
  11.9480747  44.3932965  62.5134863  12.6791607  45.2962535  63.4840852
  13.8145309  45.7229212  64.8955693  13.5563087  46.6446282  64.8940023
  13.2830350  45.3259646  65.5856157  18.7591498  58.8279999  57.6745778
  18.9328376  58.2626421  56.9219631  19.2520389  59.6280894  57.4925268
  11.3656074  44.1706252  58.1190136  11.4871986  43.2422898  58.3181023
  11.0758117  44.1844938  57.2068451  14.2347265  41.8561162  61.2556856
  14.2568962  41.9200495  60.3008835  14.6515324  41.0165671  61.4497362
  24.6130889  51.5916422  59.2936078  25.0562035  50.8423747  58.8955201
  23.7357399  51.5826558  58.9109810  19.7466670  58.1446763  54.7742677
  20.4417575  58.7653456  54.9929991  20.0889821  57.2942114  55.0495055
  21.6458094  55.5946469  56.3030007  22.1709418  55.9333741  55.5779327
  21.5580446  54.6593484  56.1193142  21.4549875  53.0771839  68.9213934
  21.5047880  52.9121846  69.8629457  21.3463798  52.2099098  68.5311815
  10.3386133  55.7560384  56.2106023  10.4874254  56.4395849  55.5572696
  11.1452577  55.7365474  56.7255479  18.7453637  49.0602767  70.2373241
  19.6463500  48.9209232  69.9457238  18.8201612  49.2257222  71.1771418
  22.9568072  55.4968780  69.1655955  22.6652880  55.8598761  70.0019416
  22.3440203  54.7835788  68.9869288  24.1563754  53.0621660  61.6858526
  24.9910645  53.5011464  61.8496086  24.2922883  52.5860313  60.8666771
  21.2055260  50.6201395  67.6336013  21.6809381  50.8129041  66.8254865
  20.2820825  50.6760581  67.3879397   8.0938766  51.7825562  57.2167092
   7.8484808  50.8787892  57.4147302   8.2634681  51.7842712  56.2746570
  15.7835476  42.6549238  66.5991847  16.3017420  43.3910265  66.2738336
  15.4290609  42.9613232  67.4338606   7.3634414  47.5153920  54.7153253
   6.6703659  47.5898275  54.0593289   7.1186166  46.7514263  55.2374770
  16.0348070  39.0749521  62.1192744  16.3149824  38.4072710  62.7453170
  16.8198677  39.2678617  61.6067408  13.8381539  58.2508515  53.6817770
  13.2655506  58.8698702  53.2288242  14.4114333  58.8007877  54.2157692
  19.9056929  47.4967155  65.8664319  20.8574352  47.5965253  65.8876543
  19.7360379  46.7045423  66.3762403  17.9271308  44.5822738  66.0523720
  17.3321240  44.8627751  65.3570209  17.6421005  45.0716639  66.8240461
  17.0578799  58.5345665  54.8126353  17.9909472  58.4691227  55.0159228
  16.9702012  59.3701932  54.3540885  19.6866815  57.8511535  51.7730300
  19.6080447  57.5171399  52.6666058  20.5076482  58.3433303  51.7721772
  22.3845007  50.7173275  64.9806619  22.3521327  49.7789275  65.1666303
  22.9945630  50.7957311  64.2472444  14.2228337  49.5869328  51.0233823
  15.1687442  49.4575536  51.0922241  13.8442582  48.8483989  51.5003251
  22.5339495  47.5084318  65.0264902  22.0178544  46.7242775  64.8394831
  23.4179444  47.1803035  65.1911421  20.1950222  41.2525334  60.9860715
  19.9975043  40.9440422  61.8704047  20.8049928  41.9786973  61.1158644
  28.2021556  51.7789281  64.1212655  28.9324945  51.5174570  64.6820359
  27.5928502  51.0418003  64.1614723  26.2836854  49.9197144  64.7187107
  25.5570017  49.7853109  64.1103598  25.8684140  50.2273973  65.5243825
  12.4071255  47.5119304  50.9588708  11.5002710  47.2152417  51.0351422
  12.6847236  47.2149122  50.0922994  14.0233320  42.0556194  57.1132949
  13.2134049  41.7103279  57.4888195  14.7117737  41.7463737  57.7020561
  15.9523869  41.1334240  58.7357246  16.5054907  41.5529694  59.3947269
  16.1893955  40.2069989  58.7780202  11.1770039  44.3706239  51.1000687
  12.0389203  44.6961137  51.3596504  11.3620383  43.5837735  50.5873753
  19.3302676  43.2434766  58.2435910  18.7501345  43.9019570  57.8613963
  19.0638608  42.4212110  57.8323328  17.7806242  42.6439823  60.4457230
  18.2806020  42.7556358  59.6371549  18.4241850  42.3400876  61.0858039
  18.1127554  45.4034856  57.2992258  17.2253409  45.6884507  57.0812453
  18.5281543  45.2428619  56.4519535  21.4642090  45.4281377  61.0146598
  22.2402480  45.9177829  61.2871214  20.7390224  45.8539431  61.4718467
  23.9014648  46.1408996  62.0720538  24.4959139  45.9004732  61.3613847
  23.9741232  45.4216127  62.6994075  17.2570767  55.1679531  51.3940278
  17.9606617  55.3729533  52.0097934  16.5333416  55.7356293  51.6589362
  18.0868577  50.9189392  57.5142549  18.0303779  51.3757943  56.6750181
  18.6396920  50.1580077  57.3365391  21.8973383  46.7079124  58.3392668
  21.6410318  46.3075759  59.1700876  21.2726251  47.4222918  58.2142807
  26.2085721  49.4475197  60.8463959  25.6485279  49.5168386  61.6195522
  25.6029225  49.2716182  60.1263456  19.1657465  55.6062060  53.4438738
  20.0003068  55.1743258  53.2616213  19.0041807  55.4344074  54.3715633
  18.8203357  52.1094173  54.8095078  18.7652161  51.9438445  53.8683522
  18.1949412  52.8170206  54.9657267  12.1299482  41.6102282  54.3880396
  12.1178152  42.5544122  54.5448667  13.0222904  41.4272428  54.0939857
  15.9451602  38.2045059  58.6426333  15.1783997  37.6503546  58.7883015
  16.3562307  38.2766928  59.5040485  27.7941740  66.1231711  63.5393915
  28.4320150  66.0038458  62.8357255  27.6762583  67.0712555  63.5981867
  24.6031446  66.0759139  63.4755440  24.2649957  65.9600204  62.5875975
  25.4721214  65.6750304  63.4556446  22.3039725  64.8447386  52.8072380
  22.5565246  64.3228908  52.0455843  21.3664284  64.6813532  52.9099064
  27.3483008  63.8483165  60.6147123  28.1346097  63.4302588  60.2637540
  27.6121712  64.7529257  60.7828772  27.5193085  69.2856015  55.3135780
  26.8838918  69.3590642  56.0256685  27.1890492  69.8749614  54.6354859
  32.7491435  63.7858398  61.5180102  33.4816607  63.2157615  61.7517931
  31.9930791  63.3979999  61.9586607  22.0236014  66.7475492  55.0096755
  21.9072272  66.0720396  55.6777839  22.1338274  66.2607866  54.1928908
  24.3667555  66.2085640  58.7143444  24.0025762  65.6816261  59.4256366
  25.2234671  65.8184109  58.5409930  30.2716856  57.4979972  65.9774710
  29.9400180  58.3675383  65.7535925  29.6762469  57.1816256  66.6568741
  24.0073042  61.2375539  53.7104793  24.1747444  62.1055776  54.0775264
  23.8170211  61.4002821  52.7866082  20.2160857  66.1506315  61.4107328
  19.2911353  66.0182529  61.6185019  20.4645270  66.9300534  61.9077270
  30.1645519  62.2175058  63.0568060  29.2562396  62.1490467  62.7626821
  30.1133115  62.6947003  63.8849886  23.9862263  63.6933197  54.6951460
  23.8661888  64.1390248  55.5336940  23.2914851  64.0418514  54.1364998
  32.0307165  60.4191497  64.8345934  31.3881546  60.7124030  64.1885729
  31.5262094  60.3044417  65.6399131  29.6847329  64.1654670  55.5231794
  30.5965185  64.3982057  55.3479491  29.1756976  64.7491714  54.9606872
  27.0283304  60.3412706  63.7721654  26.1667783  60.6393959  64.0638392
  27.0545738  60.5583105  62.8402687  22.7813759  65.0078049  56.9885025
  23.4837803  65.4599093  57.4558952  22.4494388  64.3661868  57.6164918
  18.4753839  63.6306181  59.2485636  17.6785002  63.7424875  59.7669131
  18.2479431  63.9692833  58.3826526  27.3699987  55.3449553  65.5946024
  27.0264257  56.2351195  65.5185135  27.7378950  55.1551211  64.7315609
  27.3350270  65.3358164  54.1018459  26.8196894  66.1062769  54.3406846
  27.0627579  64.6623301  54.7251521  24.9197381  60.1807865  59.1603697
  24.0638978  59.7914716  58.9809336  25.3324333  60.2599826  58.3003483
  26.4496528  57.7154209  63.5595257  25.9461323  57.6784344  62.7463062
  26.7427135  58.6246951  63.6191914  22.6939414  57.7992938  62.5661439
  23.5592410  57.6035747  62.2067328  22.7616923  57.5703290  63.4930796
  32.3084544  68.0890519  56.0371633  31.5313987  67.7501679  55.5926795
  32.9876025  68.0943142  55.3626598  27.1236573  63.2085257  55.9278240
  26.8186709  63.5231406  56.7788383  28.0767015  63.2866676  55.9705573
  20.3001733  60.0295146  59.9377806  20.8745485  59.8070328  59.2050999
  20.8872715  60.0983841  60.6906407  29.3581310  65.9168873  60.7442182
  29.8713192  66.5498865  61.2463892  30.0082534  65.3170069  60.3785542
  20.6271320  62.0599607  53.9573691  19.7908632  62.3974294  54.2782966
  20.4876090  61.9248587  53.0200828  22.6024400  56.9036395  58.6652875
  21.9488813  56.5885412  58.0409490  22.5604875  56.2812136  59.3912698
  23.7135605  67.1855690  50.5806167  22.8062667  66.9544944  50.7797316
  24.2106637  66.3893309  50.7680149  25.8362141  63.3918329  62.9900523
  24.9184702  63.6133276  62.8322211  26.2522284  63.4664639  62.1312230
  26.6197189  64.7909744  58.1203203  27.3669008  65.3031141  57.8110325
  26.8888778  64.4693797  58.9807597  24.8923839  67.2868285  55.1030157
  23.9835058  67.0027318  55.2002627  24.9218923  67.7067364  54.2433464
  29.0676026  61.8266861  60.1021992  28.3298783  61.3144247  60.4332235
  29.3202799  61.3867242  59.2905269  29.1687653  54.6043113  60.6963762
  29.4746530  53.7440476  60.4089677  29.8940258  55.1960733  60.4962756
  23.4408733  64.8996906  61.2039953  23.4957343  63.9470742  61.1282429
  22.6299935  65.0556345  61.6881251  24.5899927  68.8277029  52.4418236
  24.1519357  68.1112888  51.9823873  25.3310367  69.0553143  51.8803327
  21.3801093  63.5173965  58.9630332  20.5668958  63.8168136  59.3695524
  21.8760087  63.1229654  59.6804814  32.7073041  67.1034226  58.4994554
  32.5690940  67.2935822  57.5715744  32.3509260  67.8653609  58.9562606
  20.8715168  61.0892321  64.5791567  21.5114547  60.9481080  63.8814530
  20.0392698  60.8026834  64.2030169  17.9558235  64.5337833  56.7686312
  17.0255823  64.4722289  56.9856274  18.0515707  64.0113786  55.9722953
  17.8743784  61.0592646  59.3564553  18.1350601  61.9737979  59.2473714
  18.6960956  60.5917088  59.5061166  28.7111154  67.6861410  52.0350294
  28.0940325  66.9608238  51.9383346  28.2427643  68.4470771  51.6917368
  20.5009700  61.9046835  51.1571598  19.6239166  61.7835635  50.7933844
  20.9767453  61.1132913  50.9050486  26.9970276  60.0667754  61.0468324
  27.4938976  59.3137717  60.7269394  26.2257258  60.1032071  60.4811533
  28.0800057  68.8239442  58.6206747  27.1456336  68.9440904  58.4511451
  28.2576725  67.9211908  58.3566757  23.5805245  62.2085137  60.7740008
  23.2103033  61.6556178  61.4620914  24.0764337  61.6043271  60.2215008
  31.4672608  64.6656761  59.1556781  31.9333061  65.4984753  59.0817084
  31.9180109  64.2001743  59.8602040  29.4389271  57.0337348  63.1947683
  28.5252351  57.2641575  63.3629890  29.8682373  57.1175792  64.0461715
  15.2288394  63.4988690  56.5984503  15.5241835  62.5899368  56.5451557
  14.3276430  63.4776429  56.2765506  18.7582641  61.5744686  62.5812052
  18.0369227  62.1880654  62.4419525  19.5475897  62.1102451  62.5028698
  16.9576236  61.1802788  56.7223829  16.6288942  60.3000166  56.5398935
  17.3115606  61.1250456  57.6100218  20.0718059  61.4675757  57.0899306
  20.4114131  61.9961679  56.3677915  20.5190179  61.8056163  57.8657873
  22.7661500  59.8512808  66.5402374  22.4258320  59.0520621  66.9423054
  22.0600506  60.1514519  65.9679208  23.4177971  56.9362120  64.9929697
  24.2404041  56.4622599  64.8708588  23.6616035  57.7152604  65.4928384
  22.0586206  59.9650379  55.2892599  22.7794568  60.3431632  54.7856316
  21.4351510  60.6839256  55.3927577  26.2017329  60.6695528  56.2250931
  26.4180943  61.5520166  55.9239760  25.7211396  60.2781741  55.4956573
  20.9416550  63.6281241  62.8021676  20.7961131  63.9421544  63.6945957
  20.4641754  64.2466141  62.2492575  22.8012933  60.6183789  62.8502566
  22.7874502  59.7224882  62.5134863  23.5185361  60.6254453  63.4840852
  24.6539064  61.0521129  64.8955693  24.3956842  61.9738200  64.8940023
  24.1224104  60.6551564  65.5856157  22.2049829  59.4998169  58.1190136
  22.3265740  58.5714816  58.3181023  21.9151871  59.5136855  57.2068451
  25.0741019  57.1853080  61.2556856  25.0962716  57.2492413  60.3008835
  25.4909078  56.3457588  61.4497362  35.4524644  66.9208339  59.2936078
  35.8955790  66.1715665  58.8955201  34.5751154  66.9118476  58.9109810
  32.4851848  70.9238386  56.3030007  33.0103172  71.2625659  55.5779327
  32.3974201  69.9885402  56.1193142  26.6229231  57.9841156  66.5991847
  27.1411175  58.7202183  66.2738336  26.2684364  58.2905149  67.4338606
  18.2028168  62.8445837  54.7153253  17.5097413  62.9190192  54.0593289
  17.9579920  62.0806181  55.2374770  26.8741825  54.4041439  62.1192744
  27.1543579  53.7364628  62.7453170  27.6592432  54.5970534  61.6067408
  28.7665063  59.9114656  66.0523720  28.1714995  60.1919669  65.3570209
  28.4814759  60.4008557  66.8240461  25.0622092  64.9161245  51.0233823
  26.0081197  64.7867453  51.0922241  24.6836337  64.1775907  51.5003251
  31.0343976  56.5817251  60.9860715  30.8368798  56.2732339  61.8704047
  31.6443682  57.3078890  61.1158644  23.2465009  62.8411222  50.9588708
  22.3396464  62.5444334  51.0351422  23.5240990  62.5441040  50.0922994
  24.8627075  57.3848111  57.1132949  24.0527803  57.0395196  57.4888195
  25.5511492  57.0755655  57.7020561  26.7917623  56.4626158  58.7357246
  27.3448662  56.8821612  59.3947269  27.0287709  55.5361906  58.7780202
  22.0163794  59.6998157  51.1000687  22.8782958  60.0253055  51.3596504
  22.2014138  58.9129653  50.5873753  30.1696430  58.5726683  58.2435910
  29.5895099  59.2311487  57.8613963  29.9032363  57.7504028  57.8323328
  28.6199997  57.9731741  60.4457230  29.1199775  58.0848276  59.6371549
  29.2635604  57.6692794  61.0858039  28.9521308  60.7326774  57.2992258
  28.0647163  61.0176424  57.0812453  29.3675297  60.5720537  56.4519535
  32.3035844  60.7573295  61.0146598  33.0796234  61.2469747  61.2871214
  31.5783978  61.1831349  61.4718467  34.7408403  61.4700914  62.0720538
  35.3352894  61.2296650  61.3613847  34.8134987  60.7508044  62.6994075
  28.9262332  66.2481310  57.5142549  28.8697533  66.7049861  56.6750181
  29.4790674  65.4871994  57.3365391  32.7367138  62.0371041  58.3392668
  32.4804072  61.6367677  59.1700876  32.1120006  62.7514835  58.2142807
  29.6597111  67.4386091  54.8095078  29.6045915  67.2730362  53.8683522
  29.0343167  68.1462124  54.9657267  22.9693237  56.9394200  54.3880396
  22.9571907  57.8836040  54.5448667  23.8616659  56.7564345  54.0939857
  26.7845356  53.5336977  58.6426333  26.0177752  52.9795463  58.7883015
  27.1956061  53.6058845  59.5040485   6.1154232  12.4709998  50.2639222
   6.7532642  12.3516746  49.5602562   5.9975075  13.4190842  50.3227174
   2.9243938  12.4237426  50.2000747   2.5862450  12.3078491  49.3121281
   3.7933706  12.0228591  50.1801753   4.3630313  17.9443870  41.5012102
   3.7118292  18.5297951  41.1146116   5.1574675  18.4750065  41.5607140
   5.6695500  10.1961452  47.3392430   6.4558590   9.7780875  46.9882847
   5.9334205  11.1007544  47.5074078   5.8405578  15.6334302  42.0381087
   5.2051411  15.7068929  42.7501991   5.5102984  16.2227901  41.3600166
  11.0703928  10.1336685  48.2425408  11.8029099   9.5635902  48.4763238
  10.3143283   9.7458286  48.6831914   2.6880047  12.5563927  45.4388751
   2.3238254  12.0294548  46.1501672   3.5447163  12.1662396  45.2655236
   5.0860867  16.0470805  52.1015930   4.7861591  16.9495844  51.9931737
   4.7411927  15.7802989  52.9537083   8.4858011   8.5653346  49.7813367
   7.5774889   8.4968754  49.4872128   8.4345607   9.0425291  50.6095193
   2.3074755  10.0411484  41.4196766   2.1874380  10.4868535  42.2582246
   1.6127344  10.3896802  40.8610304   8.0059821  10.5132957  42.2477100
   8.9177677  10.7460344  42.0724798   7.4969468  11.0970001  41.6852179
   6.6129404  15.4958776  49.6390682   5.9838266  15.6604490  48.9366750
   6.2255066  15.9100385  50.4101646  10.4918635  16.4313213  46.9935045
   9.8069674  16.8112115  46.4432079  10.5762485  17.0408540  47.7266993
   7.7469567  14.0773172  53.5930389   7.9586462  14.7204932  52.9164770
   7.6999315  13.2435489  53.1252319   2.1657365  15.2333184  46.9040767
   2.6295711  15.5120887  46.1145389   1.9014164  14.3316628  46.7213857
   1.1026252  11.3556336  43.7130332   1.8050295  11.8077380  44.1804258
   0.7706880  10.7140155  44.3410225   8.8615395  16.9545128  51.7652746
   9.6832839  16.5525315  51.4835428   8.8577798  16.8513362  52.7168862
  16.9521388  13.2983876  48.1137718  16.1985096  12.7291274  47.9581722
  17.0868929  13.2646541  49.0608352   2.3420016  18.1697279  43.7892437
   2.2065691  19.0148814  44.2177285   2.8829829  18.3716556  43.0258371
   6.0669731  19.0723645  55.9474181   6.0488206  19.8932526  55.4554450
   6.9889651  18.9477720  56.1724322   5.6562762  11.6836452  40.8263766
   5.1409386  12.4541056  41.0652153   5.3840071  11.0101588  41.4496827
  10.6297037  14.4368806  42.7616939   9.8526479  14.0979966  42.3172101
  11.3088518  14.4421430  42.0871904   5.4449066   9.5563544  42.6523547
   5.1399201   9.8709693  43.5033690   6.3979508   9.6344964  42.6950880
   3.8895497  15.7153767  44.3016501   3.3616859  14.9806527  43.9889738
   3.3883000  16.4928443  44.0556469   8.8688343  13.9102788  49.4183547
   8.2112018  14.6002049  49.5063676   9.6728743  14.2999220  49.7617534
   7.6793802  12.2647160  47.4687489   8.1925684  12.8977152  47.9709199
   8.3295026  11.6648356  47.1030849   2.0348098  13.5333977  37.3051474
   1.1275159  13.3023231  37.5042623   2.5319130  12.7371597  37.4925455
   4.9416177  22.2431485  40.2248160   4.2677875  22.5463181  40.8333118
   5.3281998  23.0460565  39.8753617   4.1574633   9.7396616  49.7145829
   3.2397195   9.9611563  49.5567518   4.5734777   9.8142926  48.8557537
   4.9409681  11.1388032  44.8448510   5.6881500  11.6509429  44.5355632
   5.2101270  10.8172084  45.7052903   3.2136331  13.6346572  41.8275464
   2.3047550  13.3505605  41.9247934   3.2431415  14.0545651  40.9678771
   8.4455598  17.2453162  45.5966632   7.9917926  16.4044072  45.6531822
   7.8149565  17.8814560  45.9341412   7.3888518   8.1745148  46.8267299
   6.6511275   7.6622534  47.1577542   7.6415292   7.7345529  46.0150576
   6.8888538  19.0829658  46.5316450   7.1811512  19.6434716  45.8128815
   7.3987158  19.3758219  47.2869609   1.7621225  11.2475193  47.9285259
   1.8169835  10.2949029  47.8527736   0.9512427  11.4034632  48.4126558
   2.9112419  15.1755316  39.1663543   2.4731849  14.4591175  38.7069180
   3.6522860  15.4031431  38.6048634   1.8522163  19.8610010  47.6209903
   1.8098342  20.0870856  46.6918435   2.7684862  19.6273384  47.7695704
  11.0285534  13.4512513  45.2239861  10.8903432  13.6414109  44.2961050
  10.6721752  14.2131896  45.6807912  11.0554913  15.5189040  50.2351133
  11.4891420  15.4264329  51.0834187  11.7686494  15.4946540  49.5971149
   4.7882808  19.1191134  51.7684233   4.8419830  19.6882070  52.5361949
   3.9197590  19.2893019  51.4038270  11.9170463  15.5612741  52.7684018
  12.1106353  16.4658551  53.0143293  11.8171081  15.1020160  53.6022603
   2.5459240  17.3102061  51.0969703   2.4070325  16.9420845  51.9695641
   1.7573836  17.8249700  50.9253661   3.1407392  22.4111157  42.4395239
   3.3159147  21.9399200  43.2540862   2.4540180  23.0376923  42.6676500
   4.0964455  16.6883663  48.4858541   3.7614287  16.6484433  49.3816190
   3.5968401  16.0228379  48.0128951   7.0323646  14.0339698  38.7595600
   6.4152817  13.3086526  38.6628653   6.5640135  14.7949058  38.4162674
   8.6877778  18.7438606  56.4201381   8.6290324  18.0597826  55.7531964
   9.0897297  19.4857596  55.9682007   8.6895185  16.7078190  54.6515360
   7.8021964  16.3704112  54.7741759   9.2593736  15.9761221  54.8884126
   2.2196339  21.3679642  51.6176603   2.1466510  22.1734614  52.1295908
   1.7773732  21.5671608  50.7924625   2.0086118  20.6051412  45.1279425
   1.2253640  21.1473092  45.2217649   2.7078864  21.1225392  45.5273666
  13.1712526  12.1186407  49.4131922  13.1602402  13.0011123  49.0425855
  12.3029905  11.7657958  49.2186459   4.6795022  21.2666476  53.7734762
   5.3922995  21.9013941  53.7010664   4.1885051  21.3630342  52.9574764
   6.4012549  15.1717729  45.3452054   5.4668828  15.2919191  45.1756758
   6.5789218  14.2690196  45.0812064   9.7885101  11.0135048  45.8802088
  10.2545553  11.8463040  45.8062391  10.2392601  10.5480030  46.5847346
   7.8561332  17.3578869  42.8788240   8.1321176  17.2435464  43.7882114
   6.9865830  16.9596354  42.8400413   7.5308222  11.5705527  52.4192883
   6.8779672  11.8181435  51.7645336   7.9088602  10.7569665  52.0855361
   4.4915396  21.6065220  46.5221054   4.6737790  20.7886876  46.9848806
   5.3148382  21.8232913  46.0845944   4.8257561  20.5333405  43.7836102
   5.3545328  20.0225860  43.1706264   5.0885781  20.2175936  44.6481635
   2.3218578  23.6192266  53.1416536   2.8736886  23.7823887  53.9065622
   2.6624771  24.2096703  52.4696561   5.4586965  21.5674241  50.1280218
   5.3338104  20.7663981  49.6191164   6.1166056  22.0620435  49.6394188
   7.5221873  19.3683261  51.7559769   6.5752209  19.2488612  51.6838095
   7.8704647  18.4805759  51.8386030   4.5268307  19.1635977  47.9564121
   4.3793269  18.2352685  48.1371691   5.3521800  19.1856068  47.4721196
   8.1302429  19.9864536  49.0428994   9.0548976  19.7807398  48.9053445
   7.9617732  19.7380937  49.9518335   7.9197745  20.5050204  44.3991085
   8.0934622  19.9396626  43.6464937   8.4126636  21.3051099  44.2170575
  13.7737136  13.2686627  46.0181385  14.2168282  12.5193952  45.6200508
  12.8963646  13.2596763  45.6355117   8.9072917  19.8216968  41.4987983
   9.6023822  20.4423661  41.7175298   9.2496067  18.9712319  41.7740361
  10.8064340  17.2716674  43.0275314  11.3315664  17.6103946  42.3024634
  10.7186693  16.3363689  42.8438449   2.4684389  21.1850747  55.1565191
   2.7771515  20.9399894  56.0287890   3.2659871  21.3897386  54.6684061
   2.4905001  23.3388657  47.3870567   2.0509991  22.8465036  48.0803424
   3.2413118  22.7961625  47.1462642  12.1174318  17.1738985  55.8901262
  11.8259127  17.5368966  56.7264723  11.5046450  16.4605993  55.7114594
  13.3170001  14.7391865  48.4103832  14.1516892  15.1781669  48.5741393
  13.4529129  14.2630518  47.5912078  10.3661507  12.2971600  54.3581320
  10.8415628  12.4899246  53.5500171   9.4427072  12.3530786  54.1124704
   2.9987786  19.9278720  40.4063077   2.4261753  20.5468907  39.9533549
   3.5720579  20.4778081  40.9402999   6.2185045  20.2115870  41.5371659
   7.1515719  20.1461432  41.7404535   6.1308258  21.0472137  41.0786192
   8.8473062  19.5281740  38.4975607   8.7686694  19.1941604  39.3911365
   9.6682729  20.0203508  38.4967079  11.5451253  12.3943480  51.7051925
  11.5127573  11.4559480  51.8911609  12.1551877  12.4727516  50.9717750
   3.3834584  11.2639533  37.7479129   4.3293689  11.1345741  37.8167547
   3.0048829  10.5254194  38.2248558  11.6945742   9.1854523  51.7510209
  11.1784790   8.4012980  51.5640137  12.5785690   8.8573240  51.9156728
  17.3627803  13.4559486  50.8457962  18.0931192  13.1944774  51.4065665
  16.7534749  12.7188208  50.8860030  15.4443100  11.5967349  51.4432413
  14.7176264  11.4623314  50.8348905  15.0290387  11.9044178  52.2489131
   7.2733800   7.0805061  44.0237565   6.3859655   7.3654712  43.8057760
   7.6887790   6.9198824  43.1764842  10.6248337   7.1051582  47.7391904
  11.4008727   7.5948034  48.0116521   9.8996471   7.5309636  48.1963774
  13.0620895   7.8179201  48.7965845  13.6565386   7.5774937  48.0859153
  13.1347479   7.0986332  49.4239381   6.4177014  16.8449736  38.1185585
   7.1212864  17.0499738  38.7343241   5.6939663  17.4126498  38.3834669
   7.2474824  12.5959597  44.2387855   7.1910026  13.0528148  43.3995488
   7.8003167  11.8350281  44.0610698  11.0579630   8.3849329  45.0637975
  10.8016564   7.9845964  45.8946182  10.4332498   9.0993123  44.9388114
  15.3691968  11.1245402  47.5709266  14.8091526  11.1938591  48.3440828
  14.7635471  10.9486387  46.8508762   8.3263711  17.2832265  40.1684045
   9.1609315  16.8513463  39.9861520   8.1648054  17.1114279  41.0960940
   7.9809604  13.7864378  41.5340384   7.9258407  13.6208650  40.5928829
   7.3555659  14.4940411  41.6902574  16.9547986  27.8001916  50.2639222
  17.5926396  27.6808663  49.5602562  16.8368829  28.7482760  50.3227174
  13.7637693  27.7529344  50.2000747  13.4256204  27.6370409  49.3121281
  14.6327461  27.3520509  50.1801753   9.6224508  29.6064820  46.1897637
   9.0589374  29.5154757  45.4213925   9.5076903  28.7864725  46.6700130
  14.2457476  28.9064196  56.1586952  14.2346116  28.5116994  55.2867456
  14.4078115  28.1730268  56.7520724   7.1688940  31.1016012  49.0281858
   7.9610232  30.7606837  48.6128157   7.4085590  31.2110987  49.9484011
  15.2024067  33.2735788  41.5012102  14.5512047  33.8589869  41.1146116
  15.9968430  33.8041983  41.5607140   9.1279694  30.3624925  41.8999237
   9.9010570  29.8153912  41.7612113   9.4805093  31.2269175  42.1113698
  10.9664737  31.6901308  55.1066136  10.6754603  32.5946938  54.9912802
  11.6021721  31.7317835  55.8210206  11.8920944  29.0678156  51.6967496
  12.4884516  28.8434178  50.9824459  11.9495915  28.3262902  52.2992944
  11.4645972  26.5217591  39.5317687  11.7171493  25.9999113  38.7701150
  10.5270531  26.3583737  39.6344370  16.5089255  25.5253370  47.3392430
  17.2952344  25.1072793  46.9882847  16.7727959  26.4299462  47.5074078
  16.6799332  30.9626220  42.0381087  16.0445165  31.0360847  42.7501991
  16.3496739  31.5519819  41.3600166  21.9097682  25.4628603  48.2425408
  22.6422854  24.8927820  48.4763238  21.1537038  25.0750203  48.6831914
  11.1842261  28.4245697  41.7342062  11.0678519  27.7490601  42.4023146
  11.2944521  27.9378071  40.9174215  13.5273802  27.8855844  45.4388751
  13.1632009  27.3586465  46.1501672  14.3840918  27.4954314  45.2655236
  19.4323102  19.1750177  52.7020017  19.1006427  20.0445588  52.4781232
  18.8368716  18.8586461  53.3814047  13.1679289  22.9145744  40.4350099
  13.3353691  23.7825981  40.8020570  12.9776458  23.0773026  39.5111389
  15.9254622  31.3762723  52.1015930  15.6255345  32.2787762  51.9931737
  15.5805681  31.1094906  52.9537083   9.3767103  27.8276520  48.1352634
   8.4517600  27.6952734  48.3430326   9.6251517  28.6070739  48.6322577
  19.3251766  23.8945263  49.7813367  18.4168643  23.8260672  49.4872128
  19.2739362  24.3717208  50.6095193  13.1468510  25.3703402  41.4196766
  13.0268135  25.8160452  42.2582246  12.4521098  25.7188719  40.8610304
   6.7375914  27.4709793  48.9696423   6.8668296  27.7244272  49.8835835
   6.0573366  28.0637501  48.6501078  10.9075402  38.1407043  45.0686897
  10.8299431  39.0914869  45.1475378  10.3037045  37.7952916  45.7261824
  13.3992631  25.3134909  57.7248264  12.6225966  25.8728829  57.7151129
  14.0383195  25.7991692  58.2463134  21.1913412  22.0961702  51.5591241
  20.5487792  22.3894235  50.9131036  20.6868341  21.9814622  52.3644438
  18.8453576  25.8424875  42.2477100  19.7571432  26.0752262  42.0724798
  18.3363223  26.4261919  41.6852179  11.6539004  28.1220362  57.2866231
  12.3953688  28.6605406  57.0101055  10.9475989  28.7486651  57.4437783
  17.1294343  30.2649503  55.8838393  17.5377699  29.8231913  55.1393025
  16.4071605  29.6902130  56.1372586  13.4825413  25.2022109  53.2571950
  14.3286609  25.6261523  53.4006599  13.4224051  24.5455734  53.9510513
  17.4523158  30.8250693  49.6390682  16.8232021  30.9896407  48.9366750
  17.0648820  31.2392303  50.4101646  16.6324859  22.8626478  54.9153123
  16.3885791  23.6168538  54.3787399  16.9084789  23.2411825  55.7500370
  18.5863322  29.4065090  53.5930389  18.7980217  30.0496850  52.9164770
  18.5393070  28.5727407  53.1252319  16.1889551  22.0182911  50.4966961
  15.3274030  22.3164164  50.7883699  16.2151985  22.2353310  49.5647994
  13.0051120  30.5625101  46.9040767  13.4689465  30.8412804  46.1145389
  12.7407918  29.6608546  46.7213857   9.8975201  30.1096583  49.8420530
  10.4676558  30.5383851  49.2038015  10.4883313  29.8279168  50.5404716
  11.9420006  26.6848254  43.7130332  12.6444049  27.1369297  44.1804258
  11.6100635  26.0432073  44.3410225  10.3900368  25.2760010  58.0881541
   9.7599028  25.9576291  58.3216938  10.2836455  25.1643092  57.1434680
   5.6845340  24.9431806  49.0147465   4.8944394  25.1989335  48.5387576
   6.1756587  25.7580144  49.1199506   7.6360085  25.3076386  45.9730942
   6.8391249  25.4195080  46.4914438   7.4085678  25.6463038  45.1071833
  13.4665753  31.8321089  53.9213457  13.5310185  32.2941496  54.7571629
  12.7576677  31.2018454  54.0495767   3.9683043  25.1962297  51.4462456
   4.2191081  26.0809307  51.7120032   4.5042591  25.0166898  50.6737548
  13.1813771  33.4989196  43.7892437  13.0459445  34.3440732  44.2177285
  13.7223583  33.7008474  43.0258371   6.6343168  31.0164634  44.3620362
   7.1467689  31.8107885  44.5125927   7.2865881  30.3190925  44.2953964
   8.4438053  34.1330391  46.4443115   8.6204681  35.0548355  46.2564099
   9.2394886  33.8188810  46.8737495  12.5849071  20.9938655  58.0427049
  13.3258785  21.5945808  57.9631511  12.8166994  20.2516293  57.4845091
   7.7290409  26.1795023  56.3205279   7.6143924  25.2780280  56.6212378
   6.8734927  26.4258719  55.9690095  14.8082247  34.1212763  57.9192779
  14.3646101  33.3349141  57.6013684  15.4699461  34.3091913  57.2536670
   9.5669368  35.6508564  52.4453458  10.1176793  35.5225628  51.6730452
   8.7280844  35.9503454  52.0948351  16.9063485  34.4015563  55.9474181
  16.8881960  35.2224444  55.4554450  17.8283405  34.2769638  56.1724322
  13.3636539  31.9159692  56.7897689  13.8964876  31.1547980  56.5596997
  12.8350620  31.6233344  57.5321843  16.5306234  17.0219758  52.3191331
  16.1870504  17.9121400  52.2430441  16.8985197  16.8321416  51.4560916
   4.5992085  29.3453289  45.1379933   5.4367307  29.7550297  44.9213640
   4.7770353  28.4052731  45.1080127  16.4956517  27.0128369  40.8263766
  15.9803140  27.7832974  41.0652153  16.2233825  26.3393506  41.4496827
  14.0803628  21.8578070  45.8849004  13.2245224  21.4684921  45.7054643
  14.4930580  21.9370031  45.0248790  15.6102775  19.3924413  50.2840564
  15.1067570  19.3554549  49.4708369  15.9033381  20.3017156  50.3437221
  11.8545660  19.4763143  49.2906746  12.7198657  19.2805952  48.9312635
  11.9223169  19.2473495  50.2176102  16.2842820  24.8855461  42.6523547
  15.9792956  25.2001611  43.5033690  17.2373262  24.9636881  42.6950880
  14.7289252  31.0445685  44.3016501  14.2010614  30.3098444  43.9889738
  14.2276755  31.8220361  44.0556469   9.4607980  21.7065351  46.6623112
  10.0351731  21.4840533  45.9296305  10.0478962  21.7754046  47.4151714
  18.5187557  27.5939078  47.4687489  19.0319439  28.2269070  47.9709199
  19.1688781  26.9940273  47.1030849   9.7877567  23.7369812  40.6818998
   8.9514879  24.0744499  41.0028272   9.6482336  23.6018792  39.7446135
  11.7630647  18.5806600  45.3898182  11.1095060  18.2655617  44.7654797
  11.7211121  17.9582340  46.1158005  12.8741852  28.8625895  37.3051474
  11.9668914  28.6315148  37.5042623  13.3712884  28.0663514  37.4925455
  15.7809931  37.5723402  40.2248160  15.1071630  37.8755099  40.8333118
  16.1675753  38.3752483  39.8753617  14.9968388  25.0688534  49.7145829
  14.0790949  25.2903481  49.5567518  15.4128531  25.1434844  48.8557537
  15.7803435  26.4679949  44.8448510  16.5275254  26.9801346  44.5355632
  16.0495025  26.1464002  45.7052903  14.0530086  28.9638490  41.8275464
  13.1441305  28.6797523  41.9247934  14.0825169  29.3837568  40.9678771
  18.2282273  23.5037065  46.8267299  17.4905029  22.9914452  47.1577542
  18.4809046  23.0637447  46.0150576  18.3293900  16.2813317  47.4209068
  18.6352777  15.4210681  47.1334983  19.0546505  16.8730938  47.2208062
   4.6218256  26.6844004  45.8090666   4.4242656  26.0913365  45.0841733
   4.0664920  26.3796214  46.5266605  12.6014980  26.5767111  47.9285259
  12.6563589  25.6240947  47.8527736  11.7906182  26.7326550  48.4126558
  13.7506173  30.5047234  39.1663543  13.3125603  29.7883093  38.7069180
  14.4916614  30.7323348  38.6048634  10.5407340  25.1944170  45.6875638
   9.7275205  25.4938341  46.0940830  11.0366334  24.7999859  46.4050120
  12.6915917  35.1901927  47.6209903  12.6492096  35.4162773  46.6918435
  13.6078616  34.9565302  47.7695704  16.1381551  25.6585995  54.5190532
  16.4930939  25.8857468  55.3784998  16.7853682  25.9904372  53.8967787
  10.0321414  22.7662526  51.3036873  10.6720794  22.6251285  50.6059836
   9.1998945  22.4797039  50.9275475  10.8081718  32.0664956  47.4171866
  11.6022317  31.5715276  47.2154441  10.0973411  31.5382819  47.0539571
  15.6276563  34.4483052  51.7684233  15.6813585  35.0173988  52.5361949
  14.7591344  34.6184937  51.4038270   7.1164482  26.2108038  43.4931618
   6.1862070  26.1492493  43.7101580   7.2121954  25.6883991  42.6968260
   7.0350031  22.7362851  46.0809860   7.2956848  23.6508184  45.9719020
   7.8567203  22.2687293  46.2306473   8.5074956  24.1500608  53.2508685
   9.1798009  23.9417970  52.6021333   7.6804743  23.9522694  52.8113917
  22.7564217  30.8904658  52.7684018  22.9500107  31.7950469  53.0143293
  22.6564835  30.4312077  53.6022603  14.4100528  20.7762549  55.2674345
  13.7628443  21.4752499  55.1738822  15.1801543  21.2098693  55.6350594
  17.8179326  31.0411401  58.3424899  17.6664832  30.8121953  57.4254982
  17.8084005  31.9982002  58.3556244  14.5864662  28.6143314  53.3271165
  15.5156722  28.7654473  53.1540132  14.1655692  28.7027335  52.4719812
  13.3852994  32.6393978  51.0969703  13.2464080  32.2712763  51.9695641
  12.5967590  33.1541618  50.9253661  13.9801146  37.7403075  42.4395239
  14.1552902  37.2691118  43.2540862  13.2933934  38.3668841  42.6676500
  14.9358209  32.0175581  48.4858541  14.6008042  31.9776351  49.3816190
  14.4362155  31.3520297  48.0128951   8.9102453  27.4243211  54.0111122
   8.7722251  26.6923450  54.6122661   9.8207377  27.3352111  53.7295309
  17.8717401  29.3631615  38.7595600  17.2546572  28.6378443  38.6628653
  17.4033889  30.1240976  38.4162674  11.5384754  27.1363170  53.4994801
  12.2484372  26.4956362  53.4581420  11.4954062  27.3876065  54.4220982
  19.5271533  34.0730524  56.4201381  19.4684079  33.3889744  55.7531964
  19.9291051  34.8149514  55.9682007  10.2513688  24.1228388  55.3190441
   9.7151045  23.6719127  55.9712037   9.6630396  24.2574297  54.5760905
   8.5462231  40.8892437  49.2135099   8.7858830  41.5210962  49.8914118
   7.7031428  40.5380477  49.5000459   9.6615947  23.5817040  37.8816904
   8.7845413  23.4605840  37.5179151  10.1373700  22.7903118  37.6295793
  19.5288940  32.0370108  54.6515360  18.6415719  31.6996029  54.7741759
  20.0987491  31.3053139  54.8884126   1.1818087  28.3694199  47.9758412
   1.8689127  28.0555929  47.3879427   1.0266216  29.2735564  47.7025663
   5.9852809  23.2584396  52.4043435   5.9010998  22.6510065  51.6693845
   5.1635516  23.7493414  52.4052932  13.0590093  36.6971560  51.6176603
  12.9860265  37.5026531  52.1295908  12.6167486  36.8963526  50.7924625
  12.8479873  35.9343330  45.1279425  12.0647395  36.4765010  45.2217649
  13.5472618  36.4517310  45.5273666  16.1576523  21.7437959  47.7713630
  16.6545223  20.9907922  47.4514701  15.3863505  21.7802276  47.2056840
  15.5188777  36.5958394  53.7734762  16.2316749  37.2305859  53.7010664
  15.0278805  36.6922260  52.9574764  12.7411492  23.8855342  47.4985315
  12.3709279  23.3326383  48.1866221  13.2370584  23.2813476  46.9460315
  20.6278855  26.3426966  45.8802088  21.0939307  27.1754957  45.8062391
  21.0786356  25.8771947  46.5847346  10.5700690  34.3452837  54.5940333
  11.2710150  34.9789320  54.7469727  10.0995805  34.6867569  53.8335972
  18.6955086  32.6870787  42.8788240  18.9714930  32.5727382  43.7882114
  17.8259585  32.2888272  42.8400413  18.5995518  18.7107553  49.9192989
  17.6858598  18.9411780  50.0875196  19.0288619  18.7945997  50.7707022
  18.3701976  26.8997445  52.4192883  17.7173427  27.1473352  51.7645336
  18.7482356  26.0861583  52.0855361  15.3309150  36.9357138  46.5221054
  15.5131545  36.1178794  46.9848806  16.1542136  37.1524830  46.0845944
  15.6651316  35.8625323  43.7836102  16.1939082  35.3517778  43.1706264
  15.9279535  35.5467853  44.6481635  14.4189549  27.6417256  58.9058920
  13.7430186  27.5411385  59.5761296  15.2417183  27.4856470  59.3694918
   6.1668408  33.8789192  51.5271436   6.7521845  33.1332880  51.6599340
   5.9693247  34.1893149  52.4108099   9.0207064  36.9140440  46.5433878
   8.3517439  37.3986567  46.0597918   8.8819933  37.1609660  47.4577256
  13.1612332  38.9484183  53.1416536  13.7130640  39.1115805  53.9065622
  13.5018526  39.5388621  52.4696561   8.1376825  21.2959333  53.7438421
   8.2018152  22.1574164  53.3315819   8.0743946  20.6833335  53.0110780
   7.6129098  23.3682466  57.3911455   8.2401137  22.9859543  58.0048980
   6.7557017  23.1496668  57.7567148  18.0123207  33.7745441  58.9965191
  18.5563111  34.3875399  58.5020146  17.4310051  34.3325019  59.5132204
   4.3894641  25.1758895  43.3229810   4.6848082  24.2669573  43.2696864
   3.4882676  25.1546634  43.0010812  16.2980719  36.8966159  50.1280218
  16.1731859  36.0955899  49.6191164  16.9559811  37.3912352  49.6394188
   7.9188888  23.2514891  49.3057359   7.1975473  23.8650859  49.1664832
   8.7082143  23.7872656  49.2274005  10.7215201  20.5869318  55.5798010
  11.2449603  20.8331614  56.3424320  10.5027535  21.4189353  55.1601148
   6.1182482  22.8572992  43.4469135   5.7895188  21.9770371  43.2644241
   6.4721853  22.8020661  44.3345525   9.2324305  23.1445962  43.8144613
   9.5720378  23.6731883  43.0923221   9.6796426  23.4826368  44.5903179
  11.9267746  21.5283013  53.2647681  11.5864567  20.7290826  53.6668361
  11.2206753  21.8284724  52.6924514  12.5784218  18.6132325  51.7175004
  13.4010287  18.1392804  51.5953894  12.8222282  19.3922809  52.2173690
  11.2192453  21.6420584  42.0137906  11.9400815  22.0201837  41.5101623
  10.5957757  22.3609461  42.1172884  15.3623575  22.3465733  42.9496238
  15.5787190  23.2290371  42.6485066  14.8817643  21.9551946  42.2201880
  10.1022797  25.3051446  49.5266983   9.9567378  25.6191749  50.4191264
   9.6248001  25.9236346  48.9737881  11.9619180  22.2953994  49.5747872
  11.9480749  21.3995087  49.2380170  12.6791608  22.3024658  50.2086158
  13.8145310  22.7291334  51.6201000  13.5563088  23.6508405  51.6185330
  13.2830351  22.3321769  52.3101464   4.5768459  27.8456790  52.4654644
   4.0321927  28.6216598  52.5974918   5.4547809  28.1927595  52.3073765
  11.3656076  21.1768374  44.8435442  11.4871987  20.2485020  45.0426330
  11.0758118  21.1907060  43.9313758  14.2347266  18.8623285  47.9802162
  14.2568963  18.9262618  47.0254142  14.6515325  18.0227793  48.1742668
   5.3634481  26.9726687  55.3584801   4.6216217  27.1209322  55.9449431
   5.0427225  27.2334952  54.4951550  13.3078144  36.5142665  55.1565191
  13.6165270  36.2691812  56.0287890  14.1053626  36.7189303  54.6684061
  13.3298756  38.6680575  47.3870567  12.8903746  38.1756953  48.0803424
  14.0806873  38.1253542  47.1462642   5.8091095  34.8592115  47.3895195
   6.6349114  34.5595887  47.0093839   5.4585147  34.0899738  47.8384984
  10.7772628  34.2118584  49.4592869  10.1552637  33.5489289  49.1595097
  11.4477495  34.2379716  48.7766517   4.0099700  32.7778442  48.3484129
   3.1731608  32.3500616  48.1668130   3.9823345  32.9710885  49.2854920
  10.8497155  22.6900372  59.0525375  10.8985311  23.5662494  58.6703145
  11.3919669  22.1477765  58.4797018  21.3352001  33.2341495  58.3326512
  20.5447545  33.2165634  57.7931011  21.0985355  33.7729789  59.0875549
  21.4549876  30.0833961  55.6459241  21.5047881  29.9183969  56.5874763
  21.3463799  29.2161220  55.2557121  10.3386135  32.7622507  42.9351329
  10.4874255  33.4457971  42.2818002  11.1452578  32.7427597  43.4500785
  18.7453638  26.0664889  56.9618547  19.6463501  25.9271354  56.6702545
  18.8201613  26.2319344  57.9016725  13.0796444  23.4431744  55.8071734
  12.2099753  23.7365310  55.5354322  13.3155924  24.0272189  56.5278997
  22.9568073  32.5030903  55.8901262  22.6652881  32.8660883  56.7264723
  22.3440204  31.7897911  55.7114594  21.2055261  27.6263517  54.3581320
  21.6809383  27.8191164  53.5500171  20.2820826  27.6822703  54.1124704
   8.0938768  28.7887685  43.9412398   7.8484810  27.8850015  44.1392608
   8.2634682  28.7904835  42.9991876  15.7835478  19.6611361  53.3237154
  16.3017421  20.3972388  52.9983643  15.4290610  19.9675354  54.1583913
   7.3634415  24.5216042  41.4398560   6.6703660  24.5960397  40.7838596
   7.1186167  23.7576386  41.9620077  16.0348072  16.0811644  48.8438051
  16.3149825  15.4134833  49.4698477  16.8198679  16.2740739  48.3312714
  13.8381540  35.2570637  40.4063077  13.2655507  35.8760825  39.9533549
  14.4114334  35.8069999  40.9402999  19.9056930  24.5029278  52.5909626
  20.8574353  24.6027375  52.6121850  19.7360380  23.7107546  53.1007710
  17.9271309  21.5884861  52.7769027  17.3321242  21.8689873  52.0815515
  17.6421006  22.0778762  53.5485768  17.0578800  35.5407788  41.5371659
  17.9909473  35.4753349  41.7404535  16.9702013  36.3764054  41.0786192
  22.3845008  27.7235397  51.7051925  22.3521328  26.7851398  51.8911609
  22.9945631  27.8019434  50.9717750  14.2228339  26.5931450  37.7479129
  15.1687443  26.4637658  37.8167547  13.8442584  25.8546112  38.2248558
  22.5339496  24.5146441  51.7510209  22.0178545  23.7304897  51.5640137
  23.4179445  24.1865157  51.9156728  20.1950223  18.2587456  47.7106021
  19.9975044  17.9502544  48.5949353  20.8049929  18.9849095  47.8403951
  28.2021558  28.7851404  50.8457962  28.9324946  28.5236692  51.4065665
  27.5928503  28.0480126  50.8860030  26.2836855  26.9259267  51.4432413
  25.5570018  26.7915232  50.8348905  25.8684142  27.2336095  52.2489131
  14.1067031  30.6449196  59.2079786  15.0270041  30.8227795  59.4019833
  14.0716614  29.7005242  59.0559486  12.4071256  24.5181427  37.6834015
  11.5002711  24.2214539  37.7596728  12.6847237  24.2211245  36.8168301
   3.3249196  25.8387790  48.1333061   3.0051981  24.9853098  47.8407435
   2.7782624  26.0536368  48.8891028   7.1029104  28.5550231  51.8502568
   7.3215114  29.4867339  51.8690601   7.5154878  28.1958205  52.6357371
  14.0233322  19.0618316  43.8378256  13.2134050  18.7165401  44.2133502
  14.7117738  18.7525860  44.4265867  15.9523870  18.1396363  45.4602553
  16.5054908  18.5591817  46.1192576  16.1893956  17.2132111  45.5025509
  11.9756969  24.1283437  61.2405316  11.8753696  25.0777794  61.1717408
  11.7578511  23.8001676  60.3681387  11.1770040  21.3768362  37.8245994
  12.0389204  21.7023260  38.0841811  11.3620385  20.5899858  37.3119060
   3.1937456  29.4590701  50.1026183   2.5000928  29.0444654  49.5896137
   3.9410447  29.5011238  49.5059601  19.3302677  20.2496888  44.9681217
  18.7501346  20.9081692  44.5859269  19.0638610  19.4274233  44.5568634
  17.7806243  19.6501946  47.1702537  18.2806022  19.7618480  46.3616856
  18.4241851  19.3462999  47.8103346  11.8388239  27.5580576  60.0570378
  11.3555321  28.3580936  60.2634267  11.9249178  27.5688520  59.1037822
   5.1074199  29.3908955  47.9792197   5.0844887  29.4896643  47.0274081
   5.4174835  30.2374106  48.3009364   7.7661577  31.4485110  52.0938812
   8.7204830  31.4169053  52.0268743   7.5674100  30.9875734  52.9089038
   8.3560959  30.0186226  54.6609610   9.1753848  30.5130305  54.6844447
   8.6297766  29.1018194  54.6327177  18.1127555  22.4096979  44.0237565
  17.2253410  22.6946629  43.8057760  18.5281544  22.2490742  43.1764842
  21.4642091  22.4343500  47.7391904  22.2402481  22.9239952  48.0116521
  20.7390225  22.8601554  48.1963774  23.9014650  23.1471119  48.7965845
  24.4959141  22.9066855  48.0859153  23.9741233  22.4278249  49.4239381
   6.1211805  36.9904730  49.1109010   5.9866273  36.2305131  48.5447008
   5.7043868  37.7145630  48.6437799  17.2570768  32.1741653  38.1185585
  17.9606619  32.3791656  38.7343241  16.5333417  32.7418415  38.3834669
  18.0868579  27.9251515  44.2387855  18.0303780  28.3820066  43.3995488
  18.6396921  27.1642199  44.0610698  21.8973385  23.7141246  45.0637975
  21.6410319  23.3137882  45.8946182  21.2726253  24.4285040  44.9388114
  26.2085722  26.4537320  47.5709266  25.6485280  26.5230509  48.3440828
  25.6029226  26.2778304  46.8508762   9.2780931  37.8874047  49.3227452
   9.1613315  38.8319479  49.2206143   8.4573378  37.5847608  49.7113252
  19.1657466  32.6124182  40.1684045  20.0003070  32.1805381  39.9861520
  19.0041809  32.4406196  41.0960940  18.8203358  29.1156296  41.5340384
  18.7652162  28.9500567  40.5928829  18.1949413  29.8232329  41.6902574
   3.6095873  24.3524360  55.3601807   4.2554737  23.8423314  55.8489032
   3.4013024  25.0893042  55.9345232  16.1349265  31.4205208  60.8593947
  17.0040425  31.5945860  60.4980582  15.6556017  32.2399624  60.7369677
  12.1299483  18.6164405  41.1125703  12.1178153  19.5606245  41.2693974
  13.0222905  18.4334550  40.8185164  10.3035445  38.5402309  52.5383381
  11.2062692  38.5725919  52.8549876  10.0772815  37.6102760  52.5529717
  12.0589047  37.2933295  49.1993459  11.1084678  37.2935157  49.0857832
  12.3621534  36.5466030  48.6829494  15.9451603  15.2107181  45.3671640
  15.1783999  14.6565668  45.5128322  16.3562308  15.2829050  46.2285791
  27.7941741  43.1293834  50.2639222  28.4320151  43.0100581  49.5602562
  27.6762584  44.0774678  50.3227174  24.6031447  43.0821262  50.2000747
  24.2649959  42.9662326  49.3121281  25.4721215  42.6812427  50.1801753
  20.4618263  44.9356738  46.1897637  19.8983128  44.8446675  45.4213925
  20.3470658  44.1156643  46.6700130  25.0851230  44.2356113  56.1586952
  25.0739871  43.8408912  55.2867456  25.2471870  43.5022186  56.7520724
  18.0082695  46.4307930  49.0281858  18.8003987  46.0898754  48.6128157
  18.2479345  46.5402905  49.9484011  21.8058491  47.0193225  55.1066136
  21.5148357  47.9238856  54.9912802  22.4415476  47.0609753  55.8210206
  22.7314698  44.3970074  51.6967496  23.3278270  44.1726096  50.9824459
  22.7889670  43.6554819  52.2992944  26.7648376  46.7054641  52.1015930
  26.4649099  47.6079680  51.9931737  26.4199436  46.4386824  52.9537083
  20.2160858  43.1568438  48.1352634  19.2911354  43.0244652  48.3430326
  20.4645271  43.9362657  48.6322577  30.1645520  39.2237181  49.7813367
  29.2562398  39.1552589  49.4872128  30.1133116  39.7009126  50.6095193
  17.5769669  42.8001711  48.9696423  17.7062050  43.0536190  49.8835835
  16.8967120  43.3929419  48.6501078  21.7469156  53.4698961  45.0686897
  21.6693186  54.4206786  45.1475378  21.1430800  53.1244834  45.7261824
  24.2386386  40.6426827  57.7248264  23.4619720  41.2020747  57.7151129
  24.8776949  41.1283610  58.2463134  22.4932758  43.4512280  57.2866231
  23.2347443  43.9897324  57.0101055  21.7869744  44.0778569  57.4437783
  27.9688098  45.5941420  55.8838393  28.3771454  45.1523831  55.1393025
  27.2465359  45.0194048  56.1372586  24.3219168  40.5314027  53.2571950
  25.1680363  40.9553441  53.4006599  24.2617806  39.8747651  53.9510513
  28.2916913  46.1542611  49.6390682  27.6625775  46.3188325  48.9366750
  27.9042575  46.5684221  50.4101646  27.4718613  38.1918395  54.9153123
  27.2279545  38.9460456  54.3787399  27.7478544  38.5703743  55.7500370
  29.4257076  44.7357008  53.5930389  29.6373971  45.3788768  52.9164770
  29.3786824  43.9019324  53.1252319  27.0283305  37.3474828  50.4966961
  26.1667784  37.6456082  50.7883699  27.0545740  37.5645227  49.5647994
  20.7368956  45.4388501  49.8420530  21.3070313  45.8675769  49.2038015
  21.3277067  45.1571085  50.5404716  21.2294122  40.6051928  58.0881541
  20.5992783  41.2868209  58.3216938  21.1230210  40.4935010  57.1434680
  16.5239094  40.2723724  49.0147465  15.7338148  40.5281253  48.5387576
  17.0150342  41.0872062  49.1199506  30.5402904  47.6128963  51.7652746
  31.3620348  47.2109151  51.4835428  30.5365307  47.5097197  52.7168862
  24.3059507  47.1613007  53.9213457  24.3703940  47.6233414  54.7571629
  23.5970431  46.5310371  54.0495767  14.8076797  40.5254215  51.4462456
  15.0584836  41.4101224  51.7120032  15.3436346  40.3458816  50.6737548
  20.5074865  34.9072694  60.4506792  20.1141810  34.3538892  61.1254437
  21.3241005  35.2183272  60.8413310  17.4736923  46.3456552  44.3620362
  17.9861443  47.1399802  44.5125927  18.1259635  45.6482843  44.2953964
  19.2831807  49.4622308  46.4443115  19.4598436  50.3840273  46.2564099
  20.0788641  49.1480728  46.8737495  23.4242826  36.3230573  58.0427049
  24.1652539  36.9237726  57.9631511  23.6560749  35.5808211  57.4845091
  18.5684164  41.5086940  56.3205279  18.4537679  40.6072197  56.6212378
  17.7128682  41.7550637  55.9690095  25.6476002  49.4504681  57.9192779
  25.2039856  48.6641059  57.6013684  26.3093215  49.6383831  57.2536670
  20.4063123  50.9800482  52.4453458  20.9570548  50.8517546  51.6730452
  19.5674599  51.2795371  52.0948351  27.7457240  49.7307480  55.9474181
  27.7275715  50.5516362  55.4554450  28.6677160  49.6061556  56.1724322
  24.2030294  47.2451610  56.7897689  24.7358631  46.4839898  56.5596997
  23.6744375  46.9525262  57.5321843  27.3699989  32.3511676  52.3191331
  27.0264258  33.2413318  52.2430441  27.7378951  32.1613334  51.4560916
  15.4385839  44.6745206  45.1379933  16.2761061  45.0842215  44.9213640
  15.6164107  43.7344649  45.1080127  25.8362142  40.3980451  49.7145829
  24.9184703  40.6195398  49.5567518  26.2522286  40.4726762  48.8557537
  15.4612010  42.0135922  45.8090666  15.2636410  41.4205282  45.0841733
  14.9058674  41.7088132  46.5266605  26.9775306  40.9877912  54.5190532
  27.3324693  41.2149386  55.3784998  27.6247437  41.3196289  53.8967787
  21.6475473  47.3956874  47.4171866  22.4416071  46.9007194  47.2154441
  20.9367165  46.8674737  47.0539571  26.4670317  49.7774969  51.7684233
  26.5207339  50.3465906  52.5361949  25.5985099  49.9476854  51.4038270
  19.3468711  39.4792526  53.2508685  20.0191764  39.2709888  52.6021333
  18.5198497  39.2814612  52.8113917  25.2494283  36.1054467  55.2674345
  24.6022198  36.8044416  55.1738822  26.0195298  36.5390610  55.6350594
  28.6573080  46.3703319  58.3424899  28.5058587  46.1413870  57.4254982
  28.6477760  47.3273920  58.3556244  25.4258417  43.9435231  53.3271165
  26.3550477  44.0946391  53.1540132  25.0049447  44.0319252  52.4719812
  24.2246749  47.9685896  51.0969703  24.0857834  47.6004680  51.9695641
  23.4361345  48.4833535  50.9253661  19.7496208  42.7535129  54.0111122
  19.6116006  42.0215367  54.6122661  20.6601131  42.6644029  53.7295309
  22.3778508  42.4655088  53.4994801  23.0878127  41.8248280  53.4581420
  22.3347817  42.7167983  54.4220982  30.3665287  49.4022441  56.4201381
  30.3077833  48.7181661  55.7531964  30.7684806  50.1441431  55.9682007
  21.0907442  39.4520306  55.3190441  20.5544799  39.0011044  55.9712037
  20.5024151  39.5866215  54.5760905  19.3855986  56.2184355  49.2135099
  19.6252584  56.8502879  49.8914118  18.5425182  55.8672395  49.5000459
  30.3682694  47.3662025  54.6515360  29.4809473  47.0287947  54.7741759
  30.9381245  46.6345056  54.8884126  12.0211842  43.6986117  47.9758412
  12.7082881  43.3847847  47.3879427  11.8659970  44.6027482  47.7025663
  16.8246564  38.5876313  52.4043435  16.7404752  37.9801983  51.6693845
  16.0029270  39.0785332  52.4052932  23.8983848  52.0263478  51.6176603
  23.8254019  52.8318449  52.1295908  23.4561241  52.2255443  50.7924625
  26.3582531  51.9250312  53.7734762  27.0710504  52.5597776  53.7010664
  25.8672560  52.0214178  52.9574764  21.4094445  49.6744755  54.5940333
  22.1103904  50.3081238  54.7469727  20.9389560  50.0159487  53.8335972
  29.2095731  42.2289362  52.4192883  28.5567181  42.4765270  51.7645336
  29.5876111  41.4153501  52.0855361  25.2583304  42.9709174  58.9058920
  24.5823941  42.8703303  59.5761296  26.0810938  42.8148387  59.3694918
  17.0062163  49.2081110  51.5271436  17.5915600  48.4624798  51.6599340
  16.8087001  49.5185067  52.4108099  19.8600818  52.2432357  46.5433878
  19.1911193  52.7278485  46.0597918  19.7213688  52.4901578  47.4577256
  11.5979818  41.7786710  50.2475879  11.6363917  41.2450301  51.0412997
  11.0920110  41.2521916  49.6286856  24.0006087  54.2776101  53.1416536
  24.5524395  54.4407722  53.9065622  24.3412280  54.8680539  52.4696561
  18.9770580  36.6251251  53.7438421  19.0411906  37.4866082  53.3315819
  18.9137700  36.0125252  53.0110780  18.4522852  38.6974383  57.3911455
  19.0794891  38.3151461  58.0048980  17.5950771  38.4788585  57.7567148
  28.8516961  49.1037359  58.9965191  29.3956865  49.7167317  58.5020146
  28.2703806  49.6616937  59.5132204  15.2288395  40.5050812  43.3229810
  15.5241836  39.5961491  43.2696864  14.3276431  40.4838552  43.0010812
  27.1374474  52.2258077  50.1280218  27.0125613  51.4247816  49.6191164
  27.7953565  52.7204270  49.6394188  29.2009382  50.0267097  51.7559769
  28.2539718  49.9072448  51.6838095  29.5492155  49.1389595  51.8386030
  21.5608956  35.9161236  55.5798010  22.0843358  36.1623532  56.3424320
  21.3421289  36.7481270  55.1601148  29.8089938  50.6448372  49.0428994
  30.7336485  50.4391233  48.9053445  29.6405241  50.3964773  49.9518335
  22.7661501  36.8574931  53.2647681  22.4258321  36.0582744  53.6668361
  22.0600507  37.1576641  52.6924514  20.9416551  40.6343364  49.5266983
  20.7961132  40.9483667  50.4191264  20.4641755  41.2528264  48.9737881
  15.4162214  43.1748708  52.4654644  14.8715682  43.9508516  52.5974918
  16.2941563  43.5219513  52.3073765  16.2028235  42.3018604  55.3584801
  15.4609971  42.4501240  55.9449431  15.8820980  42.5626870  54.4951550
  24.1471898  51.8434583  55.1565191  24.4559024  51.5983729  56.0287890
  24.9447380  52.0481221  54.6684061  24.1692510  53.9972492  47.3870567
  23.7297500  53.5048871  48.0803424  24.9200627  53.4545460  47.1462642
  16.6484849  50.1884033  47.3895195  17.4742869  49.8887805  47.0093839
  16.2978901  49.4191656  47.8384984  14.8493454  48.1070360  48.3484129
  14.0125362  47.6792534  48.1668130  14.8217100  48.3002803  49.2854920
  21.6890910  38.0192289  59.0525375  21.7379065  38.8954412  58.6703145
  22.2313424  37.4769682  58.4797018  32.1745755  48.5633413  58.3326512
  31.3841299  48.5457551  57.7931011  31.9379110  49.1021706  59.0875549
  32.2943630  45.4125879  55.6459241  32.3441635  45.2475886  56.5874763
  32.1857554  44.5453138  55.2557121  29.5847393  41.3956807  56.9618547
  30.4857256  41.2563272  56.6702545  29.6595367  41.5611262  57.9016725
  23.9190198  38.7723662  55.8071734  23.0493508  39.0657228  55.5354322
  24.1549679  39.3564107  56.5278997  33.7961827  47.8322820  55.8901262
  33.5046636  48.1952801  56.7264723  33.1833959  47.1189829  55.7114594
  32.0449016  42.9555435  54.3581320  32.5203137  43.1483081  53.5500171
  31.1214581  43.0114621  54.1124704  26.6229232  34.9903279  53.3237154
  27.1411176  35.7264306  52.9983643  26.2684365  35.2967272  54.1583913
  26.8741826  31.4103561  48.8438051  27.1543580  30.7426750  49.4698477
  27.6592433  31.6032657  48.3312714  30.7450685  39.8321195  52.5909626
  31.6968107  39.9319293  52.6121850  30.5754135  39.0399464  53.1007710
  28.7665064  36.9176778  52.7769027  28.1714996  37.1981791  52.0815515
  28.4814761  37.4070679  53.5485768  33.3733251  39.8438358  51.7510209
  32.8572299  39.0596815  51.5640137  34.2573199  39.5157075  51.9156728
  24.9460786  45.9741114  59.2079786  25.8663795  46.1519713  59.4019833
  24.9110369  45.0297159  59.0559486  14.1642951  41.1679708  48.1333061
  13.8445735  40.3145016  47.8407435  13.6176379  41.3828286  48.8891028
  17.9422858  43.8842149  51.8502568  18.1608868  44.8159256  51.8690601
  18.3548632  43.5250123  52.6357371  22.8150724  39.4575354  61.2405316
  22.7147450  40.4069711  61.1717408  22.5972266  39.1293593  60.3681387
  14.0331211  44.7882619  50.1026183  13.3394682  44.3736572  49.5896137
  14.7804202  44.8303156  49.5059601  22.6781994  42.8872493  60.0570378
  22.1949075  43.6872853  60.2634267  22.7642933  42.8980438  59.1037822
  15.9467953  44.7200873  47.9792197  15.9238641  44.8188560  47.0274081
  16.2568590  45.5666024  48.3009364  18.6055331  46.7777028  52.0938812
  19.5598585  46.7460970  52.0268743  18.4067855  46.3167652  52.9089038
  19.1954713  45.3478144  54.6609610  20.0147602  45.8422223  54.6844447
  19.4691521  44.4310112  54.6327177  16.9605560  52.3196647  49.1109010
  16.8260028  51.5597048  48.5447008  16.5437622  53.0437547  48.6437799
  20.1174686  53.2165964  49.3227452  20.0007070  54.1611397  49.2206143
  19.2967132  52.9139526  49.7113252  14.4489627  39.6816278  55.3601807
  15.0948491  39.1715232  55.8489032  14.2406779  40.4184959  55.9345232
  26.9743020  46.7497125  60.8593947  27.8434179  46.9237778  60.4980582
  26.4949771  47.5691542  60.7369677  21.1429200  53.8694226  52.5383381
  22.0456447  53.9017837  52.8549876  20.9166570  52.9394677  52.5529717
  22.8982802  52.6225213  49.1993459  21.9478433  52.6227074  49.0857832
  23.2015288  51.8757947  48.6829494  18.7887118  36.8283895  59.4576821
  19.6518580  36.4720700  59.6680145  18.2152529  36.4897790  60.1452225
  38.6335495  58.4585751  50.2639222  39.2713905  58.3392499  49.5602562
  38.5156338  59.4066595  50.3227174  35.4425202  58.4113179  50.2000747
  35.1043713  58.2954244  49.3121281  36.3114970  58.0104344  50.1801753
  31.3012017  60.2648656  46.1897637  30.7376883  60.1738593  45.4213925
  31.1864412  59.4448560  46.6700130  35.9244985  59.5648031  56.1586952
  35.9133625  59.1700829  55.2867456  36.0865624  58.8314104  56.7520724
  28.8476449  61.7599847  49.0281858  29.6397741  61.4190672  48.6128157
  29.0873099  61.8694822  49.9484011  36.8811576  63.9319623  41.5012102
  36.2299556  64.5173704  41.1146116  37.6755939  64.4625818  41.5607140
  30.8067203  61.0208761  41.8999237  31.5798079  60.4737748  41.7612113
  31.1592602  61.8853010  42.1113698  32.6452246  62.3485143  55.1066136
  32.3542112  63.2530774  54.9912802  33.2809230  62.3901671  55.8210206
  33.5708453  59.7261991  51.6967496  34.1672025  59.5018014  50.9824459
  33.6283424  58.9846737  52.2992944  38.1876764  56.1837205  47.3392430
  38.9739853  55.7656628  46.9882847  38.4515468  57.0883297  47.5074078
  38.3586841  61.6210055  42.0381087  37.7232674  61.6944682  42.7501991
  38.0284248  62.2103654  41.3600166  43.5885191  56.1212438  48.2425408
  44.3210363  55.5511655  48.4763238  42.8324547  55.7334039  48.6831914
  35.2061311  58.5439680  45.4388751  34.8419518  58.0170301  46.1501672
  36.0628427  58.1538149  45.2655236  41.1110611  49.8334012  52.7020017
  40.7793936  50.7029423  52.4781232  40.5156225  49.5170296  53.3814047
  37.6042131  62.0346558  52.1015930  37.3042854  62.9371597  51.9931737
  37.2593190  61.7678742  52.9537083  31.0554612  58.4860355  48.1352634
  30.1305109  58.3536569  48.3430326  31.3039026  59.2654575  48.6322577
  41.0039275  54.5529099  49.7813367  40.0956152  54.4844507  49.4872128
  40.9526870  55.0301044  50.6095193  28.4163423  58.1293629  48.9696423
  28.5455805  58.3828108  49.8835835  27.7360875  58.7221337  48.6501078
  32.5862911  68.7990879  45.0686897  32.5086940  69.7498704  45.1475378
  31.9824554  68.4536751  45.7261824  35.0780140  55.9718744  57.7248264
  34.3013475  56.5312664  57.7151129  35.7170704  56.4575527  58.2463134
  42.8700921  52.7545537  51.5591241  42.2275301  53.0478070  50.9131036
  42.3655850  52.6398457  52.3644438  40.5241085  56.5008710  42.2477100
  41.4358941  56.7336097  42.0724798  40.0150732  57.0845754  41.6852179
  33.3326513  58.7804198  57.2866231  34.0741197  59.3189242  57.0101055
  32.6263498  59.4070486  57.4437783  38.8081852  60.9233338  55.8838393
  39.2165208  60.4815749  55.1393025  38.0859114  60.3485966  56.1372586
  35.1612922  55.8605945  53.2571950  36.0074118  56.2845358  53.4006599
  35.1011560  55.2039569  53.9510513  39.1310667  61.4834529  49.6390682
  38.5019530  61.6480243  48.9366750  38.7436329  61.8976138  50.4101646
  43.0099899  62.4188967  46.9935045  42.3250937  62.7987868  46.4432079
  43.0943748  63.0284293  47.7266993  38.3112368  53.5210313  54.9153123
  38.0673300  54.2752374  54.3787399  38.5872298  53.8995661  55.7500370
  40.2650831  60.0648926  53.5930389  40.4767726  60.7080685  52.9164770
  40.2180579  59.2311242  53.1252319  37.8677060  52.6766746  50.4966961
  37.0061539  52.9748000  50.7883699  37.8939494  52.8937145  49.5647994
  34.6838629  61.2208937  46.9040767  35.1476974  61.4996640  46.1145389
  34.4195427  60.3192381  46.7213857  31.5762710  60.7680418  49.8420530
  32.1464067  61.1967687  49.2038015  32.1670822  60.4863003  50.5404716
  33.6207515  57.3432089  43.7130332  34.3231558  57.7953133  44.1804258
  33.2888143  56.7015908  44.3410225  32.0687877  55.9343846  58.0881541
  31.4386537  56.6160127  58.3216938  31.9623964  55.8226927  57.1434680
  27.3632849  55.6015642  49.0147465  26.5731903  55.8573170  48.5387576
  27.8544096  56.4163980  49.1199506  41.3796659  62.9420881  51.7652746
  42.2014102  62.5401068  51.4835428  41.3759061  62.8389115  52.7168862
  29.3147594  55.9660221  45.9730942  28.5178758  56.0778915  46.4914438
  29.0873187  56.3046873  45.1071833  35.1453262  62.4904924  53.9213457
  35.2097694  62.9525331  54.7571629  34.4364186  61.8602289  54.0495767
  25.6470552  55.8546132  51.4462456  25.8978590  56.7393142  51.7120032
  26.1830100  55.6750734  50.6737548  49.4702652  59.2859629  48.1137718
  48.7166360  58.7167028  47.9581722  49.6050193  59.2522294  49.0608352
  34.8601280  64.1573032  43.7892437  34.7246954  65.0024567  44.2177285
  35.4011092  64.3592309  43.0258371  31.3468619  50.2364612  60.4506792
  30.9535565  49.6830810  61.1254437  32.1634760  50.5475190  60.8413310
  28.3130677  61.6748470  44.3620362  28.8255198  62.4691720  44.5125927
  28.9653390  60.9774760  44.2953964  30.1225562  64.7914226  46.4443115
  30.2992190  65.7132191  46.2564099  30.9182395  64.4772645  46.8737495
  34.2636580  51.6522491  58.0427049  35.0046294  52.2529644  57.9631511
  34.4954503  50.9100128  57.4845091  29.4077918  56.8378858  56.3205279
  29.2931433  55.9364115  56.6212378  28.5522436  57.0842555  55.9690095
  36.4869756  64.7796598  57.9192779  36.0433610  63.9932977  57.6013684
  37.1486970  64.9675749  57.2536670  31.2456877  66.3092400  52.4453458
  31.7964302  66.1809463  51.6730452  30.4068353  66.6087289  52.0948351
  38.5850994  65.0599398  55.9474181  38.5669469  65.8808279  55.4554450
  39.5070914  64.9353473  56.1724322  35.0424048  62.5743528  56.7897689
  35.5752385  61.8131816  56.5596997  34.5138129  62.2817179  57.5321843
  38.2093743  47.6803594  52.3191331  37.8658013  48.5705235  52.2430441
  38.5772706  47.4905251  51.4560916  26.2779594  60.0037124  45.1379933
  27.1154816  60.4134132  44.9213640  26.4557861  59.0636566  45.1080127
  38.1744026  57.6712205  40.8263766  37.6590649  58.4416809  41.0652153
  37.9021334  56.9977341  41.4496827  35.7591137  52.5161906  45.8849004
  34.9032733  52.1268756  45.7054643  36.1718089  52.5953866  45.0248790
  33.5333169  50.1346978  49.2906746  34.3986166  49.9389787  48.9312635
  33.6010678  49.9057330  50.2176102  43.1478300  60.4244559  42.7616939
  42.3707743  60.0855719  42.3172101  43.8269781  60.4297183  42.0871904
  37.9630329  55.5439297  42.6523547  37.6580465  55.8585446  43.5033690
  38.9160771  55.6220717  42.6950880  36.4076761  61.7029520  44.3016501
  35.8798122  60.9682280  43.9889738  35.9064264  62.4804196  44.0556469
  41.3869607  59.8978541  49.4183547  40.7293281  60.5877802  49.5063676
  42.1910006  60.2874973  49.7617534  40.1975066  58.2522913  47.4687489
  40.7106947  58.8852905  47.9709199  40.8476290  57.6524109  47.1030849
  37.4597440  68.2307238  40.2248160  36.7859139  68.5338934  40.8333118
  37.8463262  69.0336318  39.8753617  36.6755897  55.7272369  49.7145829
  35.7578458  55.9487316  49.5567518  37.0916040  55.8018679  48.8557537
  37.4590944  57.1263785  44.8448510  38.2062763  57.6385182  44.5355632
  37.7282534  56.8047837  45.7052903  35.7317595  59.6222325  41.8275464
  34.8228814  59.3381358  41.9247934  35.7612678  60.0421404  40.9678771
  40.9636862  63.2328915  45.5966632  40.5099189  62.3919825  45.6531822
  40.3330829  63.8690313  45.9341412  39.9069782  54.1620901  46.8267299
  39.1692538  53.6498287  47.1577542  40.1596555  53.7221282  46.0150576
  39.4069801  65.0705411  46.5316450  39.6992776  65.6310469  45.8128815
  39.9168422  65.3633972  47.2869609  26.3005765  57.3427839  45.8090666
  26.1030165  56.7497200  45.0841733  25.7452429  57.0380050  46.5266605
  34.2802489  57.2350946  47.9285259  34.3351098  56.2824782  47.8527736
  33.4693691  57.3910385  48.4126558  35.4293682  61.1631069  39.1663543
  34.9913112  60.4466928  38.7069180  36.1704123  61.3907184  38.6048634
  32.2194849  55.8528006  45.6875638  31.4062714  56.1522176  46.0940830
  32.7153843  55.4583694  46.4050120  34.3703426  65.8485763  47.6209903
  34.3279605  66.0746609  46.6918435  35.2866125  65.6149137  47.7695704
  37.8169060  56.3169830  54.5190532  38.1718448  56.5441303  55.3784998
  38.4641191  56.6488207  53.8967787  43.5466797  59.4388266  45.2239861
  43.4084696  59.6289862  44.2961050  43.1903016  60.2007649  45.6807912
  31.7108923  53.4246361  51.3036873  32.3508303  53.2835120  50.6059836
  30.8786454  53.1380875  50.9275475  43.5736177  61.5064793  50.2351133
  44.0072683  61.4140082  51.0834187  44.2867757  61.4822293  49.5971149
  32.4869227  62.7248792  47.4171866  33.2809826  62.2299112  47.2154441
  31.7760920  62.1966655  47.0539571  37.3064072  65.1066887  51.7684233
  37.3601094  65.6757823  52.5361949  36.4378853  65.2768772  51.4038270
  28.7951991  56.8691873  43.4931618  27.8649579  56.8076329  43.7101580
  28.8909463  56.3467826  42.6968260  30.1862465  54.8084443  53.2508685
  30.8585518  54.6001805  52.6021333  29.3592252  54.6106529  52.8113917
  44.4351726  61.5488494  52.7684018  44.6287616  62.4534304  53.0143293
  44.3352344  61.0895913  53.6022603  36.0888037  51.4346384  55.2674345
  35.4415952  52.1336334  55.1738822  36.8589052  51.8682528  55.6350594
  39.4966835  61.6995236  58.3424899  39.3452341  61.4705788  57.4254982
  39.4871514  62.6565838  58.3556244  36.2652171  59.2727149  53.3271165
  37.1944231  59.4238309  53.1540132  35.8443201  59.3611170  52.4719812
  35.0640503  63.2977814  51.0969703  34.9251589  62.9296598  51.9695641
  34.2755099  63.8125453  50.9253661  35.6588655  68.3986910  42.4395239
  35.8340411  67.9274953  43.2540862  34.9721443  69.0252676  42.6676500
  36.6145718  62.6759416  48.4858541  36.2795551  62.6360186  49.3816190
  36.1149664  62.0104132  48.0128951  30.5889962  58.0827046  54.0111122
  30.4509760  57.3507285  54.6122661  31.4994886  57.9935946  53.7295309
  39.5504910  60.0215451  38.7595600  38.9334081  59.2962279  38.6628653
  39.0821398  60.7824811  38.4162674  33.2172263  57.7947006  53.4994801
  33.9271881  57.1540198  53.4581420  33.1741571  58.0459900  54.4220982
  41.2059042  64.7314359  56.4201381  41.1471588  64.0473579  55.7531964
  41.6078560  65.4733349  55.9682007  31.9301197  54.7812223  55.3190441
  31.3938554  54.3302962  55.9712037  31.3417905  54.9158132  54.5760905
  41.2076449  62.6953943  54.6515360  40.3203228  62.3579865  54.7741759
  41.7775000  61.9636974  54.8884126  22.8605596  59.0278035  47.9758412
  23.5476636  58.7139765  47.3879427  22.7053725  59.9319399  47.7025663
  27.6640318  53.9168231  52.4043435  27.5798507  53.3093901  51.6693845
  26.8423025  54.4077249  52.4052932  34.7377602  67.3555395  51.6176603
  34.6647774  68.1610367  52.1295908  34.2954995  67.5547361  50.7924625
  34.5267382  66.5927165  45.1279425  33.7434904  67.1348845  45.2217649
  35.2260127  67.1101145  45.5273666  37.8364032  52.4021795  47.7713630
  38.3332732  51.6491757  47.4514701  37.0651014  52.4386111  47.2056840
  45.6893789  58.1062160  49.4131922  45.6783666  58.9886876  49.0425855
  44.8211169  57.7533711  49.2186459  37.1976286  67.2542229  53.7734762
  37.9104258  67.8889694  53.7010664  36.7066314  67.3506095  52.9574764
  38.9193813  61.1593482  45.3452054  37.9850091  61.2794944  45.1756758
  39.0970481  60.2565949  45.0812064  34.4199001  54.5439178  47.4985315
  34.0496788  53.9910218  48.1866221  34.9158093  53.9397311  46.9460315
  42.3066364  57.0010801  45.8802088  42.7726816  57.8338793  45.8062391
  42.7573865  56.5355783  46.5847346  32.2488199  65.0036673  54.5940333
  32.9497659  65.6373156  54.7469727  31.7783314  65.3451404  53.8335972
  40.3742595  63.3454623  42.8788240  40.6502439  63.2311217  43.7882114
  39.5047094  62.9472107  42.8400413  40.2783027  49.3691388  49.9192989
  39.3646107  49.5995615  50.0875196  40.7076128  49.4529832  50.7707022
  40.0489485  57.5581280  52.4192883  39.3960936  57.8057188  51.7645336
  40.4269865  56.7445418  52.0855361  37.0096659  67.5940973  46.5221054
  37.1919054  66.7762629  46.9848806  37.8329645  67.8108666  46.0845944
  37.3438825  66.5209158  43.7836102  37.8726591  66.0101613  43.1706264
  37.6067044  66.2051689  44.6481635  36.0977058  58.3001091  58.9058920
  35.4217695  58.1995221  59.5761296  36.9204692  58.1440305  59.3694918
  27.8455917  64.5373028  51.5271436  28.4309354  63.7916716  51.6599340
  27.6480756  64.8476984  52.4108099  30.6994573  67.5724275  46.5433878
  30.0304948  68.0570403  46.0597918  30.5607442  67.8193496  47.4577256
  22.4373572  57.1078628  50.2475879  22.4757672  56.5742219  51.0412997
  21.9313865  56.5813833  49.6286856  34.8399841  69.6068019  53.1416536
  35.3918149  69.7699640  53.9065622  35.1806035  70.1972456  52.4696561
  29.8164334  51.9543168  53.7438421  29.8805661  52.8157999  53.3315819
  29.7531455  51.3417170  53.0110780  29.2916607  54.0266301  57.3911455
  29.9188646  53.6443378  58.0048980  28.4344526  53.8080503  57.7567148
  39.6910716  64.4329276  58.9965191  40.2350620  65.0459234  58.5020146
  39.1097560  64.9908855  59.5132204  37.9768228  67.5549994  50.1280218
  37.8519368  66.7539734  49.6191164  38.6347320  68.0496188  49.6394188
  29.5976397  53.9098727  49.3057359  28.8762982  54.5234694  49.1664832
  30.3869652  54.4456492  49.2274005  40.0403137  65.3559014  51.7559769
  39.0933472  65.2364365  51.6838095  40.3885910  64.4681512  51.8386030
  32.4002710  51.2453153  55.5798010  32.9237112  51.4915450  56.3424320
  32.1815044  52.0773188  55.1601148  37.0449570  65.1511731  47.9564121
  36.8974533  64.2228438  48.1371691  37.8703064  65.1731821  47.4721196
  30.9111814  53.8029798  43.8144613  31.2507887  54.3315719  43.0923221
  31.3583935  54.1410204  44.5903179  40.6483692  65.9740289  49.0428994
  41.5730239  65.7683151  48.9053445  40.4798995  65.7256690  49.9518335
  33.6055255  52.1866848  53.2647681  33.2652076  51.3874661  53.6668361
  32.8994262  52.4868559  52.6924514  34.2571727  49.2716161  51.7175004
  35.0797796  48.7976639  51.5953894  34.5009791  50.0506644  52.2173690
  37.0411084  53.0049568  42.9496238  37.2574699  53.8874206  42.6485066
  36.5605152  52.6135782  42.2201880  31.7810306  55.9635281  49.5266983
  31.6354887  56.2775584  50.4191264  31.3035509  56.5820182  48.9737881
  33.6406689  52.9537829  49.5747872  33.6268258  52.0578923  49.2380170
  34.3579117  52.9608493  50.2086158  35.4932819  53.3875170  51.6201000
  35.2350597  54.3092240  51.6185330  34.9617860  52.9905604  52.3101464
  40.4379008  66.4925957  44.3991085  40.6115886  65.9272379  43.6464937
  40.9307899  67.2926852  44.2170575  26.2555968  58.5040626  52.4654644
  25.7109436  59.2800434  52.5974918  27.1335318  58.8511430  52.3073765
  33.0443585  51.8352210  44.8435442  33.1659496  50.9068856  45.0426330
  32.7545627  51.8490896  43.9313758  46.2918399  59.2562380  46.0181385
  46.7349545  58.5069705  45.6200508  45.4144910  59.2472516  45.6355117
  41.4254181  65.8092721  41.4987983  42.1205085  66.4299414  41.7175298
  41.7677331  64.9588072  41.7740361  27.0421990  57.6310522  55.3584801
  26.3003726  57.7793157  55.9449431  26.7214734  57.8918788  54.4951550
  43.3245604  63.2592427  43.0275314  43.8496928  63.5979699  42.3024634
  43.2367956  62.3239442  42.8438449  34.9865653  67.1726500  55.1565191
  35.2952779  66.9275647  56.0287890  35.7841135  67.3773139  54.6684061
  35.0086265  69.3264410  47.3870567  34.5691255  68.8340789  48.0803424
  35.7594382  68.7837378  47.1462642  27.4878604  65.5175951  47.3895195
  28.3136623  65.2179723  47.0093839  27.1372656  64.7483573  47.8384984
  32.4560137  64.8702419  49.4592869  31.8340146  64.2073124  49.1595097
  33.1265004  64.8963551  48.7766517  25.6887209  63.4362277  48.3484129
  24.8519117  63.0084452  48.1668130  25.6610854  63.6294721  49.2854920
  32.5284664  53.3484207  59.0525375  32.5772820  54.2246330  58.6703145
  33.0707178  52.8061600  58.4797018  43.0139510  63.8925330  58.3326512
  42.2235054  63.8749469  57.7931011  42.7772864  64.4313624  59.0875549
  43.1337385  60.7417797  55.6459241  43.1835390  60.5767804  56.5874763
  43.0251308  59.8745056  55.2557121  32.0173644  63.4206342  42.9351329
  32.1661764  64.1041807  42.2818002  32.8240087  63.4011432  43.4500785
  40.4241147  56.7248725  56.9618547  41.3251010  56.5855190  56.6702545
  40.4989122  56.8903179  57.9016725  34.7583953  54.1015579  55.8071734
  33.8887262  54.3949145  55.5354322  34.9943433  54.6856024  56.5278997
  44.6355582  63.1614738  55.8901262  44.3440390  63.5244719  56.7264723
  44.0227713  62.4481746  55.7114594  45.8351264  60.7267618  48.4103832
  46.6698155  61.1657422  48.5741393  45.9710393  60.2506271  47.5912078
  42.8842770  58.2847353  54.3581320  43.3596892  58.4774999  53.5500171
  41.9608335  58.3406539  54.1124704  29.7726277  59.4471520  43.9412398
  29.5272319  58.5433850  44.1392608  29.9422191  59.4488670  42.9991876
  37.4622986  50.3195196  53.3237154  37.9804930  51.0556223  52.9983643
  37.1078119  50.6259190  54.1583913  35.5169049  65.9154473  40.4063077
  34.9443016  66.5344660  39.9533549  36.0901843  66.4653834  40.9402999
  41.5844439  55.1613113  52.5909626  42.5361862  55.2611211  52.6121850
  41.4147889  54.3691381  53.1007710  39.6058818  52.2468696  52.7769027
  39.0108751  52.5273709  52.0815515  39.3208515  52.7362597  53.5485768
  38.7366309  66.1991623  41.5371659  39.6696982  66.1337185  41.7404535
  38.6489522  67.0347890  41.0786192  41.3654326  65.5157493  38.4975607
  41.2867957  65.1817357  39.3911365  42.1863992  66.0079261  38.4967079
  44.0632517  58.3819233  51.7051925  44.0308837  57.4435233  51.8911609
  44.6733140  58.4603269  50.9717750  44.2127005  55.1730276  51.7510209
  43.6966054  54.3888733  51.5640137  45.0966954  54.8448993  51.9156728
  49.8809067  59.4435239  50.8457962  50.6112455  59.1820528  51.4065665
  49.2716012  58.7063961  50.8860030  47.9624364  57.5843102  51.4432413
  47.2357527  57.4499067  50.8348905  47.5471651  57.8919931  52.2489131
  35.7854540  61.3033032  59.2079786  36.7057550  61.4811631  59.4019833
  35.7504123  60.3589077  59.0559486  25.0036705  56.4971625  48.1333061
  24.6839490  55.6436934  47.8407435  24.4570133  56.7120203  48.8891028
  28.7816613  59.2134066  51.8502568  29.0002623  60.1451174  51.8690601
  29.1942387  58.8542041  52.6357371  33.6544478  54.7867272  61.2405316
  33.5541205  55.7361629  61.1717408  33.4366020  54.4585511  60.3681387
  24.8724965  60.1174537  50.1026183  24.1788437  59.7028490  49.5896137
  25.6197956  60.1595073  49.5059601  41.0090186  50.9080724  44.9681217
  40.4288855  51.5665528  44.5859269  40.7426119  50.0858068  44.5568634
  39.4593752  50.3085781  47.1702537  39.9593531  50.4202316  46.3616856
  40.1029360  50.0046834  47.8103346  33.5175748  58.2164411  60.0570378
  33.0342830  59.0164771  60.2634267  33.6036687  58.2272356  59.1037822
  26.7861708  60.0492791  47.9792197  26.7632396  60.1480478  47.0274081
  27.0962344  60.8957941  48.3009364  29.4449086  62.1068946  52.0938812
  30.3992339  62.0752888  52.0268743  29.2461609  61.6459569  52.9089038
  30.0348468  60.6770062  54.6609610  30.8541357  61.1714140  54.6844447
  30.3085275  59.7602030  54.6327177  39.7915064  53.0680814  44.0237565
  38.9040919  53.3530465  43.8057760  40.2069053  52.9074577  43.1764842
  43.1429600  53.0927335  47.7391904  43.9189990  53.5823787  48.0116521
  42.4177734  53.5185389  48.1963774  45.5802159  53.8054954  48.7965845
  46.1746649  53.5650690  48.0859153  45.6528742  53.0862085  49.4239381
  27.7999314  67.6488565  49.1109010  27.6653782  66.8888966  48.5447008
  27.3831377  68.3729465  48.6437799  38.9358277  62.8325489  38.1185585
  39.6394128  63.0375491  38.7343241  38.2120926  63.4002251  38.3834669
  39.7656088  58.5835350  44.2387855  39.7091289  59.0403901  43.3995488
  40.3184430  57.8226035  44.0610698  43.5760894  54.3725082  45.0637975
  43.3197828  53.9721717  45.8946182  42.9513762  55.0868876  44.9388114
  47.8873231  57.1121155  47.5709266  47.3272789  57.1814344  48.3440828
  47.2816735  56.9362140  46.8508762  30.9568440  68.5457882  49.3227452
  30.8400824  69.4903315  49.2206143  30.1360887  68.2431444  49.7113252
  40.8444975  63.2708018  40.1684045  41.6790579  62.8389216  39.9861520
  40.6829318  63.0990032  41.0960940  40.4990867  59.7740131  41.5340384
  40.4439671  59.6084403  40.5928829  39.8736922  60.4816164  41.6902574
  25.2883382  55.0108196  55.3601807  25.9342246  54.5007150  55.8489032
  25.0800533  55.7476877  55.9345232  37.8136774  62.0789043  60.8593947
  38.6827934  62.2529695  60.4980582  37.3343526  62.8983460  60.7369677
  31.9822954  69.1986144  52.5383381  32.8850201  69.2309754  52.8549876
  31.7560324  68.2686595  52.5529717  33.7376556  67.9517131  49.1993459
  32.7872187  67.9518992  49.0857832  34.0409043  67.2049865  48.6829494
  29.6280873  52.1575813  59.4576821  30.4912335  51.8012617  59.6680145
  29.0546284  51.8189707  60.1452225  49.4729250  73.7877669  50.2639222
  50.1107660  73.6684416  49.5602562  49.3550093  74.7358513  50.3227174
  46.2818956  73.7405097  50.2000747  45.9437468  73.6246162  49.3121281
  47.1508724  73.3396262  50.1801753  44.4102207  75.0553909  51.6967496
  45.0065779  74.8309932  50.9824459  44.4677179  74.3138655  52.2992944
  43.9827236  72.5093344  39.5317687  44.2352756  71.9874866  38.7701150
  43.0451795  72.3459490  39.6344370  49.0270518  71.5129123  47.3392430
  49.8133608  71.0948546  46.9882847  49.2909223  72.4175215  47.5074078
  54.4278946  71.4504356  48.2425408  55.1604117  70.8803573  48.4763238
  53.6718301  71.0625956  48.6831914  43.7023524  74.4121450  41.7342062
  43.5859782  73.7366354  42.4023146  43.8125784  73.9253824  40.9174215
  46.0455065  73.8731598  45.4388751  45.6813272  73.3462218  46.1501672
  46.9022181  73.4830067  45.2655236  51.9504366  65.1625930  52.7020017
  51.6187691  66.0321341  52.4781232  51.3549979  64.8462214  53.3814047
  45.6860552  68.9021497  40.4350099  45.8534955  69.7701734  40.8020570
  45.4957721  69.0648779  39.5111389  41.8948367  73.8152273  48.1352634
  40.9698863  73.6828487  48.3430326  42.1432780  74.5946492  48.6322577
  51.8433029  69.8821016  49.7813367  50.9349907  69.8136425  49.4872128
  51.7920625  70.3592961  50.6095193  45.6649773  71.3579155  41.4196766
  45.5449398  71.8036205  42.2582246  44.9702361  71.7064472  40.8610304
  53.7094676  68.0837455  51.5591241  53.0669056  68.3769988  50.9131036
  53.2049604  67.9690375  52.3644438  51.3634839  71.8300628  42.2477100
  52.2752695  72.0628015  42.0724798  50.8544486  72.4137672  41.6852179
  48.7070814  68.0058664  50.4966961  47.8455293  68.3039917  50.7883699
  48.7333249  68.2229063  49.5647994  44.4601269  72.6724007  43.7130332
  45.1625313  73.1245050  44.1804258  44.1281898  72.0307826  44.3410225
  38.2026603  70.9307559  49.0147465  37.4125657  71.1865088  48.5387576
  38.6937851  71.7455897  49.1199506  40.1541349  71.2952139  45.9730942
  39.3572512  71.4070833  46.4914438  39.9266941  71.6338791  45.1071833
  36.4864306  71.1838050  51.4462456  36.7372345  72.0685060  51.7120032
  37.0223855  71.0042651  50.6737548  49.0487498  63.0095511  52.3191331
  48.7051767  63.8997153  52.2430441  49.4166460  62.8197169  51.4560916
  49.0137780  73.0004122  40.8263766  48.4984404  73.7708727  41.0652153
  48.7415089  72.3269259  41.4496827  46.5984891  67.8453823  45.8849004
  45.7426488  67.4560674  45.7054643  47.0111843  67.9245784  45.0248790
  48.1284038  65.3800166  50.2840564  47.6248834  65.3430302  49.4708369
  48.4214645  66.2892909  50.3437221  44.3726924  65.4638896  49.2906746
  45.2379921  65.2681705  48.9312635  44.4404433  65.2349248  50.2176102
  48.8024084  70.8731214  42.6523547  48.4974219  71.1877364  43.5033690
  49.7554526  70.9512634  42.6950880  41.9789243  67.6941104  46.6623112
  42.5532995  67.4716286  45.9296305  42.5660225  67.7629799  47.4151714
  42.3058830  69.7245565  40.6818998  41.4696142  70.0620252  41.0028272
  42.1663600  69.5894545  39.7446135  44.2811911  64.5682353  45.3898182
  43.6276323  64.2531370  44.7654797  44.2392385  63.9458093  46.1158005
  45.3923116  74.8501648  37.3051474  44.4850177  74.6190902  37.5042623
  45.8894148  74.0539267  37.4925455  47.5149651  71.0564287  49.7145829
  46.5972212  71.2779234  49.5567518  47.9309795  71.1310597  48.8557537
  48.2984699  72.4555702  44.8448510  49.0456518  72.9677099  44.5355632
  48.5676288  72.1339755  45.7052903  46.5711349  74.9514243  41.8275464
  45.6622568  74.6673276  41.9247934  46.6006433  75.3713322  40.9678771
  50.7463536  69.4912818  46.8267299  50.0086293  68.9790205  47.1577542
  50.9990310  69.0513200  46.0150576  50.8475163  62.2689070  47.4209068
  51.1534040  61.4086434  47.1334983  51.5727768  62.8606691  47.2208062
  37.1399519  72.6719757  45.8090666  36.9423919  72.0789118  45.0841733
  36.5846183  72.3671967  46.5266605  45.1196243  72.5642864  47.9285259
  45.1744853  71.6116700  47.8527736  44.3087445  72.7202303  48.4126558
  46.2687437  76.4922987  39.1663543  45.8306867  75.7758846  38.7069180
  47.0097878  76.7199101  38.6048634  43.0588603  71.1819923  45.6875638
  42.2456469  71.4814094  46.0940830  43.5547597  70.7875612  46.4050120
  42.5502678  68.7538279  51.3036873  43.1902057  68.6127038  50.6059836
  41.7180208  68.4672792  50.9275475  39.6345745  72.1983791  43.4931618
  38.7043333  72.1368246  43.7101580  39.7303217  71.6759744  42.6968260
  39.5531294  68.7238604  46.0809860  39.8138111  69.6383937  45.9719020
  40.3748467  68.2563046  46.2306473  41.0256220  70.1376361  53.2508685
  41.6979273  69.9293723  52.6021333  40.1986006  69.9398447  52.8113917
  41.4283717  73.4118964  54.0111122  41.2903515  72.6799203  54.6122661
  42.3388640  73.3227864  53.7295309  42.7694951  70.1104141  55.3190441
  42.2332308  69.6594880  55.9712037  42.1811660  70.2450050  54.5760905
  42.1797210  69.5692793  37.8816904  41.3026677  69.4481593  37.5179151
  42.6554963  68.7778871  37.6295793  38.5034073  69.2460149  52.4043435
  38.4192261  68.6385818  51.6693845  37.6816779  69.7369167  52.4052932
  48.6757787  67.7313712  47.7713630  49.1726486  66.9783675  47.4514701
  47.9044768  67.7678029  47.2056840  45.2592755  69.8731095  47.4985315
  44.8890543  69.3202136  48.1866221  45.7551848  69.2689229  46.9460315
  51.1176781  64.6983306  49.9192989  50.2039861  64.9287533  50.0875196
  51.5469883  64.7821750  50.7707022  40.6558089  67.2835086  53.7438421
  40.7199415  68.1449917  53.3315819  40.5925209  66.6709088  53.0110780
  36.9075904  71.1634648  43.3229810  37.2029345  70.2545326  43.2696864
  36.0063940  71.1422387  43.0010812  40.4370151  69.2390644  49.3057359
  39.7156737  69.8526612  49.1664832  41.2263407  69.7748409  49.2274005
  43.2396465  66.5745071  55.5798010  43.7630867  66.8207367  56.3424320
  43.0208798  67.4065106  55.1601148  38.6363746  68.8448745  43.4469135
  38.3076452  67.9646124  43.2644241  38.9903116  68.7896414  44.3345525
  41.7505569  69.1321715  43.8144613  42.0901641  69.6607637  43.0923221
  42.1977689  69.4702121  44.5903179  44.4449010  67.5158766  53.2647681
  44.1045830  66.7166579  53.6668361  43.7388016  67.8160477  52.6924514
  45.0965482  64.6008078  51.7175004  45.9191551  64.1268557  51.5953894
  45.3403545  65.3798562  52.2173690  43.7373716  67.6296337  42.0137906
  44.4582079  68.0077590  41.5101623  43.1139020  68.3485214  42.1172884
  47.8804839  68.3341486  42.9496238  48.0968453  69.2166124  42.6485066
  47.3998906  67.9427699  42.2201880  42.6204060  71.2927199  49.5266983
  42.4748641  71.6067502  50.4191264  42.1429264  71.9112099  48.9737881
  44.4800443  68.2829747  49.5747872  44.4662012  67.3870840  49.2380170
  45.1972871  68.2900411  50.2086158  46.3326574  68.7167087  51.6201000
  46.0744352  69.6384158  51.6185330  45.8011614  68.3197522  52.3101464
  43.8837339  67.1644127  44.8435442  44.0053250  66.2360773  45.0426330
  43.5939382  67.1782813  43.9313758  46.7528530  64.8499038  47.9802162
  46.7750226  64.9138371  47.0254142  47.1696589  64.0103546  48.1742668
  37.8815744  72.9602440  55.3584801  37.1397480  73.1085075  55.9449431
  37.5608489  73.2210705  54.4951550  48.3016741  65.6487114  53.3237154
  48.8198685  66.3848141  52.9983643  47.9471874  65.9551107  54.1583913
  39.8815679  70.5091795  41.4398560  39.1884924  70.5836150  40.7838596
  39.6367431  69.7452139  41.9620077  48.5529335  62.0687397  48.8438051
  48.8331089  61.4010586  49.4698477  49.3379942  62.2616492  48.3312714
  50.4452573  67.5760614  52.7769027  49.8502505  67.8565626  52.0815515
  50.1602270  68.0654515  53.5485768  46.7409602  72.5807203  37.7479129
  47.6868707  72.4513411  37.8167547  46.3623847  71.8421865  38.2248558
  52.7131487  64.2463209  47.7106021  52.5156308  63.9378297  48.5949353
  53.3231192  64.9724848  47.8403951  44.9252519  70.5057180  37.6834015
  44.0183975  70.2090292  37.7596728  45.2028500  70.2086998  36.8168301
  35.8430460  71.8263543  48.1333061  35.5233244  70.9728851  47.8407435
  35.2963888  72.0412121  48.8891028  46.5414585  65.0494069  43.8378256
  45.7315313  64.7041154  44.2133502  47.2299002  64.7401613  44.4265867
  48.4705133  64.1272116  45.4602553  49.0236172  64.5467570  46.1192576
  48.7075220  63.2007864  45.5025509  43.6951304  67.3644115  37.8245994
  44.5570468  67.6899013  38.0841811  43.8801648  66.5775611  37.3119060
  51.8483940  66.2372641  44.9681217  51.2682609  66.8957445  44.5859269
  51.5819873  65.4149986  44.5568634  50.2987507  65.6377699  47.1702537
  50.7987285  65.7494234  46.3616856  50.9423115  65.3338752  47.8103346
  50.6308818  68.3972732  44.0237565  49.7434673  68.6822382  43.8057760
  51.0462807  68.2366495  43.1764842  53.9823355  68.4219253  47.7391904
  54.7583745  68.9115705  48.0116521  53.2571489  68.8477307  48.1963774
  56.4195913  69.1346872  48.7965845  57.0140404  68.8942608  48.0859153
  56.4922497  68.4154002  49.4239381  50.6049842  73.9127268  44.2387855
  50.5485044  74.3695819  43.3995488  51.1578185  73.1517952  44.0610698
  54.4154648  69.7016999  45.0637975  54.1591582  69.3013635  45.8946182
  53.7907516  70.4160793  44.9388114  36.1277136  70.3400113  55.3601807
  36.7736000  69.8299067  55.8489032  35.9194288  71.0768795  55.9345232
  44.6480747  64.6040158  41.1125703  44.6359417  65.5481998  41.2693974
  45.5404169  64.4210303  40.8185164  48.4632866  61.1982934  45.3671640
  47.6965262  60.6441421  45.5128322  48.8743571  61.2704803  46.2285791
  16.9547988   4.8064039  36.9884528  17.5926398   4.6870786  36.2847869
  16.8368831   5.7544882  37.0472481  13.7637694   4.7591467  36.9246053
  13.4256205   4.6432531  36.0366588  14.6327462   4.3582632  36.9047059
   9.6224510   6.6126943  32.9142944   9.0589375   6.5216880  32.1459232
   9.5076905   5.7926847  33.3945437  14.2457477   5.9126318  42.8832259
  14.2346118   5.5179117  42.0112762  14.4078116   5.1792391  43.4766030
   7.1688942   8.1078135  35.7527165   7.9610234   7.7668959  35.3373464
   7.4085592   8.2173110  36.6729318  15.2024068  10.2797911  28.2257409
  14.5512048  10.8651991  27.8391423  15.9968431  10.8104106  28.2852446
   9.1279696   7.3687048  28.6244543   9.9010572   6.8216035  28.4857419
   9.4805094   8.2331297  28.8359005  10.9664738   8.6963430  41.8311443
  10.6754604   9.6009061  41.7158109  11.6021722   8.7379958  42.5455512
  11.8920945   6.0740279  38.4212802  12.4884517   5.8496301  37.7069765
  11.9495916   5.3325024  39.0238250  16.5089256   2.5315492  34.0637737
  17.2952345   2.1134916  33.7128154  16.7727960   3.4361585  34.2319385
  16.6799334   7.9688343  28.7626393  16.0445166   8.0422969  29.4747298
  16.3496740   8.5581942  28.0845473  21.9097683   2.4690726  34.9670715
  22.6422855   1.8989942  35.2008545  21.1537039   2.0812326  35.4077221
  11.1842262   5.4307820  28.4587368  11.0678520   4.7552723  29.1268453
  11.2944522   4.9440194  27.6419521  13.5273803   4.8917967  32.1634057
  13.1632010   4.3648588  32.8746979  14.3840919   4.5016436  31.9900543
  15.9254623   8.3824846  38.8261236  15.6255346   9.2849884  38.7177044
  15.5805683   8.1157029  39.6782389  19.3251767   0.9007386  36.5058674
  18.4168644   0.8322794  36.2117435  19.2739363   1.3779331  37.3340499
  13.1468511   2.3765524  28.1442073  13.0268136   2.8222575  28.9827553
  12.4521099   2.7250842  27.5855611  10.9075403  15.1469166  31.7932204
  10.8299433  16.0976991  31.8720685  10.3037047  14.8015039  32.4507130
  13.3992633   2.3197031  44.4493571  12.6225967   2.8790952  44.4396436
  14.0383196   2.8053814  44.9708441  21.1913413  -0.8976176  38.2836548
  20.5487794  -0.6043643  37.6376342  20.6868342  -1.0123255  39.0889744
  18.8453577   2.8486997  28.9722407  19.7571433   3.0814384  28.7970104
  18.3363224   3.4324042  28.4097485  11.6539005   5.1282485  44.0111538
  12.3953689   5.6667529  43.7346362  10.9475991   5.7548774  44.1683090
  17.1294345   7.2711625  42.6083699  17.5377701   6.8294036  41.8638332
  16.4071606   6.6964253  42.8617892  17.4523159   7.8312816  36.3635988
  16.8232022   7.9958530  35.6612056  17.0648821   8.2454425  37.1346952
  21.3312391   8.7667254  33.7180352  20.6463429   9.1466155  33.1677385
  21.4156241   9.3762580  34.4512300  16.6324860  -0.1311400  41.6398430
  16.3885792   0.6230661  41.1032706  16.9084791   0.2473948  42.4745677
  18.5863323   6.4127213  40.3175696  18.7980218   7.0558973  39.6410077
  18.5393071   5.5789529  39.8497626  13.0051121   7.5687224  33.6286073
  13.4689467   7.8474927  32.8390696  12.7407919   6.6670669  33.4459164
   9.8975202   7.1158706  36.5665837  10.4676559   7.5445974  35.9283321
  10.4883314   6.8341290  37.2650022  11.9420007   3.6910376  30.4375639
  12.6444051   4.1431420  30.9049565  11.6100636   3.0494195  31.0655532
  19.7009151   9.2899168  38.4898053  20.5226595   8.8879355  38.2080735
  19.6971554   9.1867402  39.4414169  13.4665754   8.8383211  40.6458763
  13.5310187   9.3003619  41.4816935  12.7576678   8.2080576  40.7741073
  27.7915144   5.6337917  34.8383024  27.0378852   5.0645315  34.6827029
  27.9262685   5.6000581  35.7853659  13.1813772  10.5051319  30.5137744
  13.0459447  11.3502855  30.9422592  13.7223584  10.7070597  29.7503678
   6.6343169   8.0226757  31.0865669   7.1467690   8.8170007  31.2371234
   7.2865882   7.3253047  31.0199270   8.4438054  11.1392513  33.1688422
   8.6204682  12.0610478  32.9809406   9.2394888  10.8250933  33.5982802
  14.8082248  11.1274885  44.6438086  14.3646102  10.3411264  44.3258990
  15.4699462  11.3154036  43.9781977   9.5669369  12.6570687  39.1698764
  10.1176795  12.5287750  38.3975758   8.7280845  12.9565576  38.8193657
  16.9063486  11.4077685  42.6719487  16.8881962  12.2286566  42.1799756
  17.8283406  11.2831761  42.8969628  13.3636541   8.9221815  43.5142995
  13.8964877   8.1610103  43.2842303  12.8350622   8.6295467  44.2567150
  16.4956518   4.0190492  27.5509072  15.9803142   4.7895097  27.7897460
  16.2233827   3.3455628  28.1742134  21.4690792   6.7722847  29.4862246
  20.6920235   6.4334006  29.0417408  22.1482273   6.7775470  28.8117211
  16.2842821   1.8917584  29.3768854  15.9792957   2.2063733  30.2278997
  17.2373263   1.9699004  29.4196187  14.7289253   8.0507807  31.0261808
  14.2010615   7.3160567  30.7135045  14.2276756   8.8282484  30.7801776
  19.7082099   6.2456828  36.1428854  19.0505774   6.9356089  36.2308982
  20.5122498   6.6353260  36.4862840  18.5187558   4.6001201  34.1932796
  19.0319440   5.2331192  34.6954505  19.1688782   4.0002396  33.8276156
  12.8741853   5.8688018  24.0296781  11.9668915   5.6377271  24.2287930
  13.3712885   5.0725637  24.2170762  15.7809932  14.5785525  26.9493467
  15.1071631  14.8817222  27.5578425  16.1675754  15.3814605  26.5998924
  14.9968389   2.0750656  36.4391136  14.0790950   2.2965603  36.2812824
  15.4128533   2.1496967  35.5802843  15.7803437   3.4742072  31.5693816
  16.5275256   3.9863469  31.2600938  16.0495026   3.1526125  32.4298210
  14.0530087   5.9700613  28.5520771  13.1441306   5.6859645  28.6493240
  14.0825171   6.3899691  27.6924077  19.2849354   9.5807202  32.3211938
  18.8311681   8.7398112  32.3777129  18.6543321  10.2168600  32.6586718
  18.2282274   0.5099188  33.5512606  17.4905031  -0.0023426  33.8822848
  18.4809047   0.0699570  32.7395883  17.7282293  11.4183699  33.2561756
  18.0205268  11.9788756  32.5374122  18.2380914  11.7112260  34.0114915
  12.6014981   3.5829233  34.6530566  12.6563591   2.6303070  34.5773043
  11.7906183   3.7388672  35.1371864  13.7506175   7.5109356  25.8908849
  13.3125605   6.7945215  25.4314487  14.4916615   7.7385471  25.3293941
  12.6915919  12.1964050  34.3455210  12.6492097  12.4224896  33.4163742
  13.6078618  11.9627424  34.4941011  16.1381552   2.6648117  41.2435839
  16.4930940   2.8919590  42.1030305  16.7853684   2.9966494  40.6213094
  21.8679289   5.7866553  31.9485168  21.7297188   5.9768149  31.0206357
  21.5115508   6.5485936  32.4053219  21.8948669   7.8543080  36.9596439
  22.3285176   7.7618369  37.8079493  22.6080250   7.8300581  36.3216455
  10.8081719   9.0727079  34.1417172  11.6022318   8.5777399  33.9399747
  10.0973412   8.5444942  33.7784878  15.6276564  11.4545174  38.4929540
  15.6813586  12.0236111  39.2607256  14.7591345  11.6247059  38.1283577
  22.7564219   7.8966781  39.4929325  22.9500109   8.8012591  39.7388600
  22.6564837   7.4374200  40.3267910  17.8179327   8.0473524  45.0670205
  17.6664834   7.8184075  44.1500289  17.8084007   9.0044125  45.0801550
  14.5864664   5.6205436  40.0516472  15.5156724   5.7716596  39.8785439
  14.1655694   5.7089457  39.1965118  13.3852995   9.6456101  37.8215009
  13.2464081   9.2774885  38.6940947  12.5967592  10.1603740  37.6498967
  13.9801147  14.7465197  29.1640546  14.1552903  14.2753240  29.9786169
  13.2933935  15.3730963  29.3921807  14.9358211   9.0237703  35.2103847
  14.6008043   8.9838473  36.1061497  14.4362156   8.3582419  34.7374257
  17.8717402   6.3693738  25.4840907  17.2546573   5.6440566  25.3873959
  17.4033891   7.1303098  25.1407981  11.5384755   4.1425293  40.2240108
  12.2484374   3.5018485  40.1826726  11.4954063   4.3938188  41.1466289
  19.5271534  11.0792646  43.1446687  19.4684080  10.3951866  42.4777270
  19.9291052  11.8211636  42.6927313   8.5462233  17.8954560  35.9380406
   8.7858831  18.5273084  36.6159425   7.7031429  17.5442600  36.2245765
  19.5288941   9.0432230  41.3760667  18.6415720   8.7058152  41.4987066
  20.0987492   8.3115261  41.6129432  13.0590095  13.7033682  38.3421910
  12.9860266  14.5088654  38.8541215  12.6167488  13.9025648  37.5169931
  12.8479874  12.9405452  31.8524732  12.0647396  13.4827133  31.9462956
  13.5472619  13.4579432  32.2518973  24.0106282   4.4540447  36.1377228
  23.9996158   5.3365163  35.7671162  23.1423661   4.1011998  35.9431766
  15.5188778  13.6020516  40.4980069  16.2316750  14.2367981  40.4255970
  15.0278807  13.6984382  39.6820071  17.2406305   7.5071769  32.0697360
  16.3062584   7.6273232  31.9002065  17.4182973   6.6044236  31.8057370
  20.6278856   3.3489088  32.6047395  21.0939309   4.1817080  32.5307697
  21.0786357   2.8834070  33.3092653  10.5700692  11.3514960  41.3185640
  11.2710151  11.9851443  41.4715034  10.0995807  11.6929691  40.5581279
  18.6955087   9.6932910  29.6033547  18.9714931   9.5789504  30.5127421
  17.8259586   9.2950395  29.5645720  18.3701978   3.9059567  39.1438190
  17.7173428   4.1535475  38.4890643  18.7482357   3.0923706  38.8100667
  15.3309151  13.9419261  33.2466360  15.5131546  13.1240917  33.7094113
  16.1542137  14.1586953  32.8091250  15.6651317  12.8687446  30.5081409
  16.1939083  12.3579900  29.8951571  15.9279537  12.5529976  31.3726942
  14.4189551   4.6479378  45.6304227  13.7430188   4.5473508  46.3006602
  15.2417184   4.4918592  46.0940224   6.1668410  10.8851315  38.2516742
   6.7521846  10.1395003  38.3844646   5.9693248  11.1955272  39.1353406
   9.0207065  13.9202562  33.2679185   8.3517440  14.4048690  32.7843225
   8.8819935  14.1671783  34.1822563  13.1612333  15.9546306  39.8661843
  13.7130642  16.1177927  40.6310928  13.5018527  16.5450744  39.1941868
  18.0123208  10.7807563  45.7210497  18.5563112  11.3937522  45.2265452
  17.4310053  11.3387142  46.2377510  16.2980721  13.9028281  36.8525525
  16.1731860  13.1018021  36.3436471  16.9559812  14.3974475  36.3639495
  18.3615629  11.7037302  38.4805075  17.4145965  11.5842653  38.4083402
  18.7098402  10.8159800  38.5631337  15.3662062  11.4990018  34.6809427
  15.2187025  10.5706725  34.8616997  16.1915556  11.5210108  34.1966503
  18.9696184  12.3218576  35.7674300  19.8942732  12.1161438  35.6298751
  18.8011488  12.0734978  36.6763642  18.7591501  12.8404244  31.1236392
  18.9328378  12.2750666  30.3710244  19.2520392  13.6405139  30.9415882
  24.6130892   5.6040667  32.7426691  25.0562038   4.8547992  32.3445815
  23.7357402   5.5950803  32.3600423  19.7466673  12.1571008  28.2233290
  20.4417578  12.7777701  28.4420605  20.0889823  11.3066360  28.4985668
  21.6458096   9.6070714  29.7520621  22.1709420   9.9457987  29.0269941
  21.5580449   8.6717729  29.5683755  13.3078145  13.5204788  41.8810497
  13.6165271  13.2753934  42.7533197  14.1053627  13.7251426  41.3929368
  13.3298757  15.6742697  34.1115874  12.8903747  15.1819076  34.8048731
  14.0806874  15.1315665  33.8707949   5.8091096  11.8654238  34.1140502
   6.6349116  11.5658010  33.7339145   5.4585148  11.0961860  34.5630291
  10.7772629  11.2180706  36.1838176  10.1552638  10.5551411  35.8840403
  11.4477496  11.2441838  35.5011823   4.0099701   9.7840564  35.0729436
   3.1731609   9.3562739  34.8913437   3.9823346   9.9773008  36.0100227
  21.3352002  10.2403618  45.0571819  20.5447546  10.2227756  44.5176318
  21.0985357  10.7791911  45.8120855  21.4549877   7.0896084  42.3704547
  21.5047882   6.9246091  43.3120070  21.3463801   6.2223343  41.9802428
  10.3386136   9.7684630  29.6596636  10.4874256  10.4520094  29.0063309
  11.1452579   9.7489720  30.1746092  18.7453640   3.0727012  43.6863854
  19.6463502   2.9333477  43.3947852  18.8201614   3.2381467  44.6262031
  22.9568074   9.5093025  42.6146569  22.6652882   9.8723006  43.4510030
  22.3440205   8.7960034  42.4359901  24.1563756   7.0745905  35.1349139
  24.9910648   7.5135709  35.2986699  24.2922885   6.5984558  34.3157385
  21.2055262   4.6325640  41.0826627  21.6809384   4.8253286  40.2745478
  20.2820828   4.6884826  40.8370010  13.8381541  12.2632760  27.1308384
  13.2655509  12.8822947  26.6778855  14.4114335  12.8132122  27.6648305
  19.9056931   1.5091400  39.3154932  20.8574354   1.6089498  39.3367156
  19.7360382   0.7169669  39.8253017  17.9271311  -1.4053017  39.5014333
  17.3321243  -1.1248004  38.8060822  17.6421007  -0.9159116  40.2731074
  17.0578801  12.5469910  28.2616966  17.9909474  12.4815472  28.4649841
  16.9702014  13.3826177  27.8031498  19.6866818  11.8635780  25.2220913
  19.6080449  11.5295644  26.1156671  20.5076485  12.3557548  25.2212386
  22.3845009   4.7297520  38.4297232  22.3521329   3.7913521  38.6156916
  22.9945633   4.8081557  37.6963057  14.2228340   3.5993573  24.4724436
  15.1687445   3.4699781  24.5412854  13.8442585   2.8608235  24.9493864
  22.5339498   1.5208563  38.4755515  22.0178546   0.7367020  38.2885444
  23.4179446   1.1927280  38.6402035  28.2021559   5.7913527  37.5703269
  28.9324947   5.5298815  38.1310972  27.5928504   5.0542249  37.6105337
  26.2836856   3.9321389  38.1677720  25.5570020   3.7977354  37.5594212
  25.8684143   4.2398218  38.9734438  14.1067032   7.6511319  45.9325093
  15.0270042   7.8289918  46.1265140  14.0716616   6.7067364  45.7804792
  11.8388240   4.5642698  46.7815685  11.3555322   5.3643058  46.9879574
  11.9249179   4.5750643  45.8283129   7.7661578   8.4547233  38.8184119
   8.7204831   8.4231175  38.7514050   7.5674101   7.9937857  39.6334344
   8.3560960   7.0248349  41.3854916   9.1753849   7.5192428  41.4089753
   8.6297768   6.1080317  41.3572484  18.1127556  -0.5840899  30.7482872
  17.2253411  -0.2991248  30.5303066  18.5281545  -0.7447135  29.9010149
  21.4642092  -0.5594378  34.4637211  22.2402482  -0.0697925  34.7361828
  20.7390227  -0.1336324  34.9209080  23.9014651   0.1533241  35.5211152
  24.4959142  -0.0871023  34.8104460  23.9741235  -0.5659628  36.1484688
   6.1211807  13.9966852  35.8354316   5.9866275  13.2367253  35.2692314
   5.7043869  14.7207752  35.3683105  17.2570770   9.1803776  24.8430892
  17.9606620   9.3853778  25.4588547  16.5333418   9.7480538  25.1079975
  18.0868580   4.9313637  30.9633162  18.0303781   5.3882189  30.1240794
  18.6396922   4.1704322  30.7856005  21.8973386   0.7203369  31.7883281
  21.6410320   0.3200005  32.6191489  21.2726254   1.4347163  31.6633421
  26.2085724   3.4599442  34.2954573  25.6485282   3.5292632  35.0686135
  25.6029227   3.2840427  33.5754069   9.2780933  14.8936169  36.0472759
   9.1613317  15.8381602  35.9451449   8.4573379  14.5909731  36.4358558
  19.1657467   9.6186305  26.8929352  20.0003071   9.1867504  26.7106827
  19.0041810   9.4468319  27.8206246  18.8203359   6.1218418  28.2585691
  18.7652163   5.9562690  27.3174135  18.1949415   6.8294451  28.4147881
  16.1349266   8.4267330  47.5839254  17.0040426   8.6007983  47.2225889
  15.6556018   9.2461747  47.4614983  10.3035447  15.5464431  39.2628687
  11.2062693  15.5788042  39.5795182  10.0772817  14.6164882  39.2775023
  12.0589049  14.2995418  35.9238766  11.1084680  14.2997279  35.8103138
  12.3621535  13.5528152  35.4074801  25.0851231  21.2418236  42.8832259
  25.0739872  20.8471034  42.0112762  25.2471871  20.5084309  43.4766030
  18.0082696  23.4370052  35.7527165  18.8003988  23.0960877  35.3373464
  18.2479346  23.5465027  36.6729318  19.9673450  22.6978966  28.6244543
  20.7404326  22.1507953  28.4857419  20.3198849  23.5623215  28.8359005
  21.8058493  24.0255348  41.8311443  21.5148359  24.9300979  41.7158109
  22.4415477  24.0671875  42.5455512  22.7314699  21.4032196  38.4212802
  23.3278272  21.1788219  37.7069765  22.7889671  20.6616942  39.0238250
  22.3039728  18.8571632  26.2562993  22.5565249  18.3353153  25.4946456
  21.3664287  18.6937777  26.3589677  32.7491438  17.7982643  34.9670715
  33.4816610  17.2281860  35.2008545  31.9930793  17.4104244  35.4077221
  30.2716858  11.5104217  39.4265324  29.9400183  12.3799628  39.2026539
  29.6762472  11.1940501  40.1059354  24.0073044  15.2499784  27.1595406
  24.1747447  16.1180021  27.5265877  23.8170214  15.4127066  26.2356695
  17.5769670  19.8063834  35.6941730  17.7062051  20.0598313  36.6081142
  16.8967121  20.3991542  35.3746385  24.2386387  17.6488949  44.4493571
  23.4619721  18.2082869  44.4396436  24.8776950  18.1345732  44.9708441
  32.0307168  14.4315742  38.2836548  31.3881548  14.7248275  37.6376342
  31.5262096  14.3168662  39.0889744  22.4932760  20.4574402  44.0111538
  23.2347444  20.9959446  43.7346362  21.7869745  21.0840691  44.1683090
  24.3219169  17.5376150  39.9817256  25.1680364  17.9615563  40.1251905
  24.2617807  16.8809774  40.6755820  27.4718615  15.1980518  41.6398430
  27.2279546  15.9522579  41.1032706  27.7478545  15.5765866  42.4745677
  27.0283306  14.3536951  37.2212268  26.1667785  14.6518205  37.5129005
  27.0545741  14.5707350  36.2893300  21.2294123  17.6114051  44.8126848
  20.5992784  18.2930332  45.0462245  21.1230211  17.4997132  43.8679986
  16.5239096  17.2785847  35.7392772  15.7338150  17.5343375  35.2632883
  17.0150343  18.0934185  35.8444813  18.4753841  17.6430426  32.6976249
  17.6785004  17.7549120  33.2159745  18.2479433  17.9817078  31.8317139
  24.3059509  24.1675129  40.6458763  24.3703941  24.6295536  41.4816935
  23.5970433  23.5372494  40.7741073  14.8076799  17.5316337  38.1707763
  15.0584837  18.4163347  38.4365339  15.3436347  17.3520939  37.3982855
  20.5074866  11.9134817  47.1752099  20.1141812  11.3601015  47.8499743
  21.3241006  12.2245395  47.5658617  17.4736924  23.3518675  31.0865669
  17.9861444  24.1461925  31.2371234  18.1259637  22.6544965  31.0199270
  23.4242827  13.3292696  44.7672356  24.1652540  13.9299849  44.6876818
  23.6560750  12.5870333  44.2090398  18.5684165  18.5149063  43.0450585
  18.4537680  17.6134320  43.3457684  17.7128683  18.7612760  42.6935402
  25.6476003  26.4566803  44.6438086  25.2039857  25.6703182  44.3258990
  26.3093216  26.6445954  43.9781977  20.4063124  27.9862605  39.1698764
  20.9570549  27.8579668  38.3975758  19.5674600  28.2857494  38.8193657
  24.2030295  24.2513733  43.5142995  24.7358632  23.4902021  43.2842303
  23.6744376  23.9587384  44.2567150  27.3699990   9.3573799  39.0436637
  27.0264259  10.2475440  38.9675748  27.7378953   9.1675456  38.1806222
  15.4385841  21.6807329  31.8625239  16.2761063  22.0904337  31.6458947
  15.6164108  20.7406771  31.8325433  24.9197384  14.1932110  32.6094311
  24.0638980  13.8038961  32.4299949  25.3324335  14.2724071  31.7494096
  26.4496530  11.7278454  37.0085870  25.9461326  11.6908589  36.1953676
  26.7427137  12.6371196  37.0682527  22.6939416  11.8117183  36.0152052
  23.5592413  11.6159992  35.6557942  22.7616925  11.5827535  36.9421409
  20.3001735  14.0419391  33.3868419  20.8745487  13.8194573  32.6541612
  20.8872718  14.1108086  34.1397020  20.6271322  16.0723852  27.4064304
  19.7908635  16.4098539  27.7273579  20.4876092  15.9372832  26.4691441
  22.6024403  10.9160640  32.1143488  21.9488815  10.6009657  31.4900103
  22.5604877  10.2936381  32.8403311  23.7135608  21.1979935  24.0296781
  22.8062670  20.9669189  24.2287930  24.2106640  20.4017555  24.2170762
  25.8362143  17.4042574  36.4391136  24.9184705  17.6257521  36.2812824
  26.2522287  17.4788884  35.5802843  29.1687656   8.6167358  34.1454375
  29.4746532   7.7564721  33.8580290  29.8940260   9.2084978  33.9453369
  15.4612012  19.0198044  32.5335973  15.2636412  18.4267405  31.8087039
  14.9058676  18.7150254  33.2511912  21.3801095  17.5298211  32.4120945
  20.5668961  17.8292381  32.8186137  21.8760089  17.1353899  33.1295427
  26.9775307  17.9940035  41.2435839  27.3324695  18.2211508  42.1030305
  27.6247438  18.3258412  40.6213094  20.8715170  15.1016566  38.0282180
  21.5114549  14.9605325  37.3305143  20.0392701  14.8151079  37.6520782
  17.9558237  18.5462078  30.2176925  17.0255825  18.4846534  30.4346887
  18.0515709  18.0238031  29.4213566  17.8743786  15.0716891  32.8055167
  18.1350604  15.9862224  32.6964327  18.6960959  14.6041334  32.9551779
  19.3468712  16.4854648  39.9753991  20.0191765  16.2772010  39.3266640
  18.5198498  16.2876734  39.5359223  25.2494284  13.1116589  41.9919652
  24.6022199  13.8106539  41.8984128  26.0195299  13.5452733  42.3595900
  28.6573082  23.3765441  45.0670205  28.5058588  23.1475993  44.1500289
  28.6477761  24.3336043  45.0801550  19.7496209  19.7597251  40.7356428
  19.6116007  19.0277490  41.3367967  20.6601133  19.6706151  40.4540616
  22.3778510  19.4717211  40.2240108  23.0878128  18.8310403  40.1826726
  22.3347818  19.7230105  41.1466289  21.0907444  16.4582428  42.0435747
  20.5544801  16.0073167  42.6957344  20.5024152  16.5928337  41.3006212
  19.3855987  33.2246478  35.9380406  19.6252585  33.8565002  36.6159425
  18.5425184  32.8734518  36.2245765  20.5009703  15.9171080  24.6062211
  19.6239169  15.7959881  24.2424458  20.9767456  15.1257158  24.3541100
  12.0211843  20.7048240  34.7003718  12.7082883  20.3909970  34.1124734
  11.8659971  21.6089604  34.4270970  16.8246565  15.5938436  39.1288742
  16.7404754  14.9864106  38.3939152  16.0029271  16.0847454  39.1298238
  26.9970279  14.0792000  34.4958937  27.4938978  13.3261962  34.1760007
  26.2257260  14.1156316  33.9302146  21.4094446  26.6806878  41.3185640
  22.1103906  27.3143361  41.4715034  20.9389561  27.0221609  40.5581279
  29.4389274  11.0461593  36.6438296  28.5252353  11.2765820  36.8120503
  29.8682375  11.1300037  37.4952328  29.2095732  19.2351485  39.1438190
  28.5567182  19.4827393  38.4890643  29.5876112  18.4215623  38.8100667
  25.2583305  19.9771296  45.6304227  24.5823942  19.8765425  46.3006602
  26.0810939  19.8210510  46.0940224  17.0062164  26.2143233  38.2516742
  17.5915601  25.4686921  38.3844646  16.8087003  26.5247189  39.1353406
  19.8600819  29.2494480  33.2679185  19.1911195  29.7340608  32.7843225
  19.7213689  29.4963701  34.1822563  11.5979819  18.7848833  36.9721185
  11.6363918  18.2512424  37.7658303  11.0920112  18.2584038  36.3532163
  18.9770581  13.6313373  40.4683728  19.0411908  14.4928204  40.0561125
  18.9137701  13.0187375  39.7356086  18.4522854  15.7036506  44.1156762
  19.0794893  15.3213583  44.7294286  17.5950773  15.4850708  44.4812454
  15.2288396  17.5112935  30.0475117  15.5241838  16.6023613  29.9942170
  14.3276432  17.4900674  29.7256119  18.7582643  15.5868932  36.0302665
  18.0369229  16.2004899  35.8910139  19.5475899  16.1226696  35.9519311
  21.5608957  12.9223358  42.3043317  22.0843359  13.1685655  43.0669626
  21.3421290  13.7543393  41.8846454  16.9576238  15.1927033  30.1714442
  16.6288944  14.3124412  29.9889548  17.3115609  15.1374701  31.0590831
  20.0718061  15.4800003  30.5389920  20.4114134  16.0085924  29.8168528
  20.5190182  15.8180409  31.3148486  22.7661502  13.8637053  39.9892988
  22.4258322  13.0644866  40.3913668  22.0600508  14.1638764  39.4169821
  23.4177974  10.9486366  38.4420311  24.2404043  10.4746844  38.3199201
  23.6616037  11.7276849  38.9418997  22.0586208  13.9774624  28.7383212
  22.7794571  14.3555877  28.2346929  21.4351512  14.6963501  28.8418190
  26.2017331  14.6819773  29.6741545  26.4180946  15.5644411  29.3730373
  25.7211398  14.2905986  28.9447187  22.8012936  14.6308034  36.2993179
  22.7874504  13.7349128  35.9625477  23.5185364  14.6378698  36.9331465
  24.6539066  15.0645374  38.3446306  24.3956844  15.9862445  38.3430637
  24.1224107  14.6675809  39.0346770  15.4162215  20.1810831  39.1899950
  14.8715683  20.9570639  39.3220225  16.2941565  20.5281635  39.0319072
  22.2049831  13.5122415  31.5680749  22.3265743  12.5839061  31.7671636
  21.9151874  13.5261101  30.6559064  25.0741022  11.1977325  34.7047469
  25.0962719  11.2616658  33.7499448  25.4909081  10.3581834  34.8987975
  16.2028237  19.3080727  42.0830107  15.4609973  19.4563362  42.6694738
  15.8820981  19.5688993  41.2196857  16.6484850  27.1946156  34.1140502
  17.4742870  26.8949928  33.7339145  16.2978902  26.4253778  34.5630291
  14.8493455  25.1132482  35.0729436  14.0125364  24.6854656  34.8913437
  14.8217101  25.3064925  36.0100227  21.6890911  15.0254412  45.7770682
  21.7379066  15.9016535  45.3948451  22.2313425  14.4831805  45.2042325
  21.1779890  25.0976547  29.6596636  21.3268011  25.7812012  29.0063309
  21.9846334  25.0781637  30.1746092  29.5847394  18.4018930  43.6863854
  30.4857257  18.2625394  43.3947852  29.6595369  18.5673384  44.6262031
  23.9190199  15.7785784  42.5317040  23.0493509  16.0719350  42.2599629
  24.1549680  16.3626229  43.2524304  32.0449017  19.9617558  41.0826627
  32.5203138  20.1545204  40.2745478  31.1214582  20.0176744  40.8370010
  18.9332523  21.1241725  30.6657705  18.6878565  20.2204055  30.8637915
  19.1028438  21.1258875  29.7237183  26.6229233  11.9965401  40.0482461
  27.1411177  12.7326428  39.7228949  26.2684366  12.3029395  40.8829220
  18.2028171  16.8570082  28.1643866  17.5097416  16.9314437  27.5083902
  17.9579923  16.0930426  28.6865383  26.8741827   8.4165684  35.5683357
  27.1543581   7.7488873  36.1943784  27.6592434   8.6094779  35.0558021
  30.7450686  16.8383318  39.3154932  31.6968109  16.9381415  39.3367156
  30.5754136  16.0461586  39.8253017  28.7665065  13.9238901  39.5014333
  28.1714997  14.2043914  38.8060822  28.4814762  14.4132802  40.2731074
  33.2238764  20.0589437  38.4297232  33.1915084  19.1205438  38.6156916
  33.8339387  20.1373474  37.6963057  33.3733252  16.8500481  38.4755515
  32.8572301  16.0658938  38.2885444  34.2573201  16.5219198  38.6402035
  31.0343979  10.5941496  34.4351328  30.8368800  10.2856585  35.3194660
  31.6443685  11.3203135  34.5649258  37.1230611  19.2613307  38.1677720
  36.3963774  19.1269272  37.5594212  36.7077897  19.5690136  38.9734438
  24.9460787  22.9803237  45.9325093  25.8663796  23.1581836  46.1265140
  24.9110370  22.0359282  45.7804792  23.2465012  16.8535467  24.4079321
  22.3396467  16.5568580  24.4842035  23.5240993  16.5565285  23.5413607
  14.1642952  18.1741830  34.8578368  13.8445736  17.3207138  34.5652742
  13.6176380  18.3890408  35.6136335  17.9422860  20.8904271  38.5747874
  18.1608869  21.8221379  38.5935908  18.3548633  20.5312246  39.3602678
  24.8627077  11.3972357  30.5623563  24.0527806  11.0519442  30.9378809
  25.5511494  11.0879900  31.1511174  26.7917626  10.4750403  32.1847859
  27.3448664  10.8945857  32.8437882  27.0287712   9.5486151  32.2270815
  22.8150725  16.4637477  47.9650623  22.7147452  17.4131834  47.8962714
  22.5972267  16.1355716  47.0926693  22.0163796  13.7122402  24.5491300
  22.8782960  14.0377300  24.8087118  22.2014140  12.9253898  24.0364366
  14.0331212  21.7944742  36.8271489  13.3394683  21.3798695  36.3141444
  14.7804203  21.8365278  36.2304908  28.6199999  11.9855986  33.8947844
  29.1199777  12.0972521  33.0862163  29.2635607  11.6817039  34.5348652
  22.6781995  19.8934616  46.7815685  22.1949077  20.6934976  46.9879574
  22.7642934  19.9042561  45.8283129  15.9467954  21.7262996  34.7037504
  15.9238643  21.8250683  33.7519387  16.2568591  22.5728146  35.0254670
  18.6055332  23.7839151  38.8184119  19.5598586  23.7523093  38.7514050
  18.4067856  23.3229774  39.6334344  19.1954714  22.3540267  41.3854916
  20.0147603  22.8484345  41.4089753  19.4691522  21.4372235  41.3572484
  32.3035847  14.7697540  34.4637211  33.0796237  15.2593992  34.7361828
  31.5783981  15.1955594  34.9209080  34.7408405  15.4825159  35.5211152
  35.3352896  15.2420895  34.8104460  34.8134989  14.7632290  36.1484688
  16.9605561  29.3258770  35.8354316  16.8260029  28.5659171  35.2692314
  16.5437623  30.0499670  35.3683105  32.7367140  16.0495287  31.7883281
  32.4804075  15.6491922  32.6191489  32.1120008  16.7639081  31.6633421
  37.0479478  18.7891360  34.2954573  36.4879036  18.8584549  35.0686135
  36.4422982  18.6132345  33.5754069  20.1174687  30.2228087  36.0472759
  20.0007071  31.1673520  35.9451449  19.2967133  29.9201649  36.4358558
  14.4489629  16.6878400  42.0847113  15.0948492  16.1777354  42.5734338
  14.2406780  17.4247082  42.6590538  26.9743021  23.7559248  47.5839254
  27.8434181  23.9299900  47.2225889  26.4949772  24.5753665  47.4614983
  22.9693239  10.9518445  27.8371009  22.9571909  11.8960285  27.9939280
  23.8616661  10.7688590  27.5430471  26.7845359   7.5461222  32.0916946
  26.0177754   6.9919708  32.2373629  27.1956064   7.6183090  32.9531098
  18.7887120  13.8346018  46.1822127  19.6518581  13.4782822  46.3925452
  18.2152530  13.4959912  46.8697532  46.7638740  51.9002071  42.8832259
  46.7527381  51.5054870  42.0112762  46.9259380  51.1668144  43.4766030
  39.6870205  54.0953888  35.7527165  40.4791497  53.7544712  35.3373464
  39.9266855  54.2048863  36.6729318  47.7205332  56.2673664  28.2257409
  47.0693312  56.8527744  27.8391423  48.5149695  56.7979859  28.2852446
  43.4846002  54.6839183  41.8311443  43.1935868  55.5884814  41.7158109
  44.1202986  54.7255711  42.5455512  44.4102208  52.0616032  38.4212802
  45.0065781  51.8372054  37.7069765  44.4677180  51.3200777  39.0238250
  48.4435887  54.3700599  38.8261236  48.1436610  55.2725638  38.7177044
  48.0986946  54.1032782  39.6782389  43.4256666  61.1344919  31.7932204
  43.3480696  62.0852744  31.8720685  42.8218310  60.7890792  32.4507130
  44.1720269  51.1158238  44.0111538  44.9134953  51.6543282  43.7346362
  43.4657254  51.7424527  44.1683090  49.6475608  53.2587378  42.6083699
  50.0558964  52.8169789  41.8638332  48.9252870  52.6840006  42.8617892
  53.8493655  54.7543007  33.7180352  53.1644693  55.1341908  33.1677385
  53.9337504  55.3638333  34.4512300  51.1044586  52.4002966  40.3175696
  51.3161482  53.0434726  39.6410077  51.0574335  51.5665282  39.8497626
  52.2190414  55.2774921  38.4898053  53.0407858  54.8755108  38.2080735
  52.2152817  55.1743155  39.4414169  45.9847018  54.8258965  40.6458763
  46.0491450  55.2879372  41.4816935  45.2757942  54.1956329  40.7741073
  60.3096407  51.6213670  34.8383024  59.5560116  51.0521068  34.6827029
  60.4443949  51.5876334  35.7853659  45.6995035  56.4927072  30.5137744
  45.5640710  57.3378608  30.9422592  46.2404848  56.6946350  29.7503678
  40.9619317  57.1268266  33.1688422  41.1385946  58.0486231  32.9809406
  41.7576151  56.8126686  33.5982802  47.3263512  57.1150639  44.6438086
  46.8827366  56.3287017  44.3258990  47.9880725  57.3029789  43.9781977
  42.0850633  58.6446440  39.1698764  42.6358058  58.5163503  38.3975758
  41.2462109  58.9441329  38.8193657  49.4244750  57.3953438  42.6719487
  49.4063225  58.2162319  42.1799756  50.3464670  57.2707514  42.8969628
  45.8817804  54.9097568  43.5142995  46.4146141  54.1485856  43.2842303
  45.3531885  54.6171220  44.2567150  53.9872056  52.7598600  29.4862246
  53.2101499  52.4209759  29.0417408  54.6663537  52.7651223  28.8117211
  47.2470517  54.0383560  31.0261808  46.7191878  53.3036320  30.7135045
  46.7458019  54.8158237  30.7801776  48.2991196  60.5661278  26.9493467
  47.6252894  60.8692975  27.5578425  48.6857018  61.3690358  26.5998924
  51.8030618  55.5682955  32.3211938  51.3492945  54.7273865  32.3777129
  51.1724584  56.2044353  32.6586718  50.2463557  57.4059452  33.2561756
  50.5386531  57.9664509  32.5374122  50.7562178  57.6988013  34.0114915
  45.2097182  58.1839803  34.3455210  45.1673361  58.4100649  33.4163742
  46.1259881  57.9503177  34.4941011  54.3860553  51.7742306  31.9485168
  54.2478451  51.9643902  31.0206357  54.0296772  52.5361689  32.4053219
  54.4129932  53.8418833  36.9596439  54.8466439  53.7494122  37.8079493
  55.1261513  53.8176334  36.3216455  43.3262983  55.0602832  34.1417172
  44.1203581  54.5653152  33.9399747  42.6154675  54.5320695  33.7784878
  48.1457827  57.4420927  38.4929540  48.1994850  58.0111864  39.2607256
  47.2772609  57.6122812  38.1283577  55.2745482  53.8842534  39.4929325
  55.4681372  54.7888344  39.7388600  55.1746100  53.4249953  40.3267910
  50.3360591  54.0349277  45.0670205  50.1846097  53.8059828  44.1500289
  50.3265270  54.9919878  45.0801550  47.1045927  51.6081189  40.0516472
  48.0337987  51.7592349  39.8785439  46.6836957  51.6965210  39.1965118
  45.9034259  55.6331854  37.8215009  45.7645345  55.2650638  38.6940947
  45.1148855  56.1479493  37.6498967  46.4982411  60.7340950  29.1640546
  46.6734167  60.2628993  29.9786169  45.8115199  61.3606716  29.3921807
  47.4539474  55.0113457  35.2103847  47.1189307  54.9714226  36.1061497
  46.9543420  54.3458172  34.7374257  44.0566019  50.1301046  40.2240108
  44.7665637  49.4894238  40.1826726  44.0135327  50.3813941  41.1466289
  52.0452797  57.0668399  43.1446687  51.9865344  56.3827619  42.4777270
  52.4472316  57.8087389  42.6927313  41.0643496  63.8830313  35.9380406
  41.3040094  64.5148837  36.6159425  40.2212693  63.5318353  36.2245765
  52.0470205  55.0307983  41.3760667  51.1596983  54.6933905  41.4987066
  52.6168756  54.2991014  41.6129432  45.5771358  59.6909435  38.3421910
  45.5041530  60.4964407  38.8541215  45.1348751  59.8901401  37.5169931
  45.3661138  58.9281206  31.8524732  44.5828660  59.4702886  31.9462956
  46.0653883  59.4455185  32.2518973  56.5287545  50.4416201  36.1377228
  56.5177421  51.3240916  35.7671162  55.6604925  50.0887751  35.9431766
  48.0370042  59.5896270  40.4980069  48.7498014  60.2243734  40.4255970
  47.5460070  59.6860136  39.6820071  49.7587568  53.4947522  32.0697360
  48.8243847  53.6148985  31.9002065  49.9364237  52.5919989  31.8057370
  53.1460120  49.3364841  32.6047395  53.6120572  50.1692833  32.5307697
  53.5967620  48.8709823  33.3092653  43.0881955  57.3390713  41.3185640
  43.7891415  57.9727196  41.4715034  42.6177070  57.6805445  40.5581279
  51.2136351  55.6808663  29.6033547  51.4896195  55.5665257  30.5127421
  50.3440850  55.2826148  29.5645720  47.8490415  59.9295014  33.2466360
  48.0312809  59.1116670  33.7094113  48.6723401  60.1462706  32.8091250
  48.1832580  58.8563199  30.5081409  48.7120347  58.3455653  29.8951571
  48.4460800  58.5405729  31.3726942  38.6849673  56.8727068  38.2516742
  39.2703110  56.1270756  38.3844646  38.4874512  57.1831025  39.1353406
  41.5388328  59.9078315  33.2679185  40.8698704  60.3924443  32.7843225
  41.4001198  60.1547536  34.1822563  45.6793597  61.9422059  39.8661843
  46.2311905  62.1053680  40.6310928  46.0199790  62.5326497  39.1941868
  50.5304471  56.7683316  45.7210497  51.0744375  57.3813275  45.2265452
  49.9491316  57.3262895  46.2377510  48.8161984  59.8904034  36.8525525
  48.6913124  59.0893774  36.3436471  49.4741075  60.3850228  36.3639495
  50.8796893  57.6913055  38.4805075  49.9327228  57.5718406  38.4083402
  51.2279666  56.8035553  38.5631337  47.8843326  57.4865771  34.6809427
  47.7368288  56.5582478  34.8616997  48.7096819  57.5085861  34.1966503
  51.4877448  58.3094329  35.7674300  52.4123995  58.1037191  35.6298751
  51.3192751  58.0610731  36.6763642  51.2772764  58.8279997  31.1236392
  51.4509641  58.2626419  30.3710244  51.7701655  59.6280892  30.9415882
  57.1312155  51.5916420  32.7426691  57.5743301  50.8423745  32.3445815
  56.2538665  51.5826556  32.3600423  52.2647936  58.1446761  28.2233290
  52.9598841  58.7653454  28.4420605  52.6071087  57.2942113  28.4985668
  54.1639360  55.5946467  29.7520621  54.6890684  55.9333740  29.0269941
  54.0761712  54.6593482  29.5683755  45.8259408  59.5080541  41.8810497
  46.1346535  59.2629687  42.7533197  46.6234890  59.7127179  41.3929368
  45.8480020  61.6618450  34.1115874  45.4085011  61.1694829  34.8048731
  46.5988137  61.1191418  33.8707949  38.3272359  57.8529991  34.1140502
  39.1530379  57.5533763  33.7339145  37.9766411  57.0837613  34.5630291
  43.2953892  57.2056459  36.1838176  42.6733902  56.5427164  35.8840403
  43.9658759  57.2317591  35.5011823  53.8533266  56.2279371  45.0571819
  53.0628809  56.2103509  44.5176318  53.6166620  56.7667664  45.8120855
  53.9731141  53.0771837  42.3704547  54.0229146  52.9121844  43.3120070
  53.8645064  52.2099096  41.9802428  42.8567399  55.7560383  29.6596636
  43.0055520  56.4395847  29.0063309  43.6633843  55.7365473  30.1746092
  51.2634903  49.0602765  43.6863854  52.1644766  48.9209230  43.3947852
  51.3382878  49.2257220  44.6262031  55.4749338  55.4968778  42.6146569
  55.1834146  55.8598759  43.4510030  54.8621469  54.7835787  42.4359901
  56.6745020  53.0621658  35.1349139  57.5091911  53.5011462  35.2986699
  56.8104149  52.5860311  34.3157385  53.7236526  50.6201393  41.0826627
  54.1990647  50.8129039  40.2745478  52.8002091  50.6760579  40.8370010
  46.3562805  58.2508513  27.1308384  45.7836772  58.8698700  26.6778855
  46.9295599  58.8007875  27.6648305  52.4238195  47.4967153  39.3154932
  53.3755618  47.5965251  39.3367156  52.2541645  46.7045422  39.8253017
  49.5760065  58.5345663  28.2616966  50.5090738  58.4691225  28.4649841
  49.4883278  59.3701930  27.8031498  52.2048081  57.8511534  25.2220913
  52.1261713  57.5171397  26.1156671  53.0257748  58.3433301  25.2212386
  54.9026273  50.7173273  38.4297232  54.8702593  49.7789274  38.6156916
  55.5126896  50.7957310  37.6963057  55.0520761  47.5084316  38.4755515
  54.5359810  46.7242773  38.2885444  55.9360710  47.1803033  38.6402035
  60.7202822  51.7789280  37.5703269  61.4506211  51.5174568  38.1310972
  60.1109768  51.0418002  37.6105337  58.8018120  49.9197142  38.1677720
  58.0751283  49.7853107  37.5594212  58.3865406  50.2273971  38.9734438
  46.6248296  53.6387072  45.9325093  47.5451305  53.8165671  46.1265140
  46.5897879  52.6943117  45.7804792  40.2842841  54.4422986  38.8184119
  41.2386095  54.4106928  38.7514050  40.0855365  53.9813610  39.6334344
  40.8742223  53.0124102  41.3854916  41.6935112  53.5068181  41.4089753
  41.1479031  52.0956070  41.3572484  56.4195914  46.1408994  35.5211152
  57.0140405  45.9004730  34.8104460  56.4922498  45.4216125  36.1484688
  38.6393070  59.9842605  35.8354316  38.5047538  59.2243006  35.2692314
  38.2225132  60.7083505  35.3683105  49.7752033  55.1679529  24.8430892
  50.4787883  55.3729531  25.4588547  49.0514682  55.7356291  25.1079975
  58.7266987  49.4475195  34.2954573  58.1666545  49.5168385  35.0686135
  58.1210491  49.2716180  33.5754069  41.7962196  60.8811922  36.0472759
  41.6794580  61.8257355  35.9451449  40.9754642  60.5785484  36.4358558
  51.6838731  55.6062058  26.8929352  52.5184334  55.1743257  26.7106827
  51.5223073  55.4344072  27.8206246  51.3384623  52.1094171  28.2585691
  51.2833427  51.9438443  27.3174135  50.7130678  52.8170204  28.4147881
  48.6530530  54.4143083  47.5839254  49.5221690  54.5883736  47.2225889
  48.1737281  55.2337500  47.4614983  42.8216710  61.5340184  39.2628687
  43.7243957  61.5663795  39.5795182  42.5954080  60.6040635  39.2775023
  44.5770312  60.2871171  35.9238766  43.6265943  60.2873032  35.8103138
  44.8802798  59.5403905  35.4074801  60.3123006  66.1231709  36.9884528
  60.9501416  66.0038457  36.2847869  60.1943849  67.0712553  37.0472481
  57.1212712  66.0759137  36.9246053  56.7831223  65.9600202  36.0366588
  57.9902480  65.6750302  36.9047059  52.9799528  67.9294614  32.9142944
  52.4164393  67.8384551  32.1459232  52.8651923  67.1094518  33.3945437
  57.6032495  67.2293989  42.8832259  57.5921136  66.8346787  42.0112762
  57.7653134  66.4960062  43.4766030  50.5263960  69.4245805  35.7527165
  51.3185251  69.0836630  35.3373464  50.7660610  69.5340780  36.6729318
  52.4854713  68.6854719  28.6244543  53.2585589  68.1383706  28.4857419
  52.8380112  69.5498968  28.8359005  54.3239756  70.0131101  41.8311443
  54.0329622  70.9176732  41.7158109  54.9596740  70.0547628  42.5455512
  55.2495963  67.3907949  38.4212802  55.8459535  67.1663972  37.7069765
  55.3070934  66.6492695  39.0238250  54.8220991  64.8447385  26.2562993
  55.0746512  64.3228906  25.4946456  53.8845550  64.6813530  26.3589677
  59.8664274  63.8483163  34.0637737  60.6527363  63.4302586  33.7128154
  60.1302978  64.7529255  34.2319385  65.2672701  63.7858396  34.9670715
  65.9997873  63.2157613  35.2008545  64.5112057  63.3979997  35.4077221
  54.5417280  66.7475491  28.4587368  54.4253538  66.0720394  29.1268453
  54.6519540  66.2607865  27.6419521  56.8848821  66.2085638  32.1634057
  56.5207028  65.6816259  32.8746979  57.7415937  65.8184107  31.9900543
  62.7898122  57.4979970  39.4265324  62.4581446  58.3675381  39.2026539
  62.1943735  57.1816254  40.1059354  56.5254308  61.2375537  27.1595406
  56.6928710  62.1055774  27.5265877  56.3351477  61.4002819  26.2356695
  52.7342123  66.1506313  34.8597941  51.8092619  66.0182527  35.0675633
  52.9826536  66.9300532  35.3567883  62.6826785  62.2175057  36.5058674
  61.7743662  62.1490465  36.2117435  62.6314381  62.6947001  37.3340499
  56.5043529  63.6933195  28.1442073  56.3843154  64.1390246  28.9827553
  55.8096117  64.0418513  27.5855611  50.0950934  65.7939587  35.6941730
  50.2243315  66.0474066  36.6081142  49.4148385  66.3867295  35.3746385
  56.7567651  63.6364702  44.4493571  55.9800985  64.1958622  44.4396436
  57.3958214  64.1221485  44.9708441  64.5488431  60.4191495  38.2836548
  63.9062812  60.7124028  37.6376342  64.0443360  60.3044415  39.0889744
  62.2028595  64.1654668  28.9722407  63.1146451  64.3982055  28.7970104
  61.6938242  64.7491712  28.4097485  55.0114023  66.4450156  44.0111538
  55.7528707  66.9835199  43.7346362  54.3051008  67.0716444  44.1683090
  56.8400433  63.5251903  39.9817256  57.6861628  63.9491316  40.1251905
  56.7799070  62.8685527  40.6755820  59.9899878  61.1856271  41.6398430
  59.7460810  61.9398332  41.1032706  60.2659809  61.5641619  42.4745677
  59.5464570  60.3412704  37.2212268  58.6849049  60.6393958  37.5129005
  59.5727004  60.5583103  36.2893300  56.3626139  68.8854895  33.6286073
  56.8264485  69.1642598  32.8390696  56.0982937  67.9838339  33.4459164
  53.2550220  68.4326376  36.5665837  53.8251577  68.8613645  35.9283321
  53.8458332  68.1508961  37.2650022  55.2995025  65.0078047  30.4375639
  56.0019069  65.4599091  30.9049565  54.9675654  64.3661866  31.0655532
  53.7475387  63.5989804  44.8126848  53.1174047  64.2806085  45.0462245
  53.6411475  63.4872885  43.8679986  49.0420359  63.2661600  35.7392772
  48.2519413  63.5219128  35.2632883  49.5331607  64.0809938  35.8444813
  50.9935105  63.6306179  32.6976249  50.1966268  63.7424873  33.2159745
  50.7660697  63.9692831  31.8317139  47.3258062  63.5192090  38.1707763
  47.5766101  64.4039100  38.4365339  47.8617611  63.3396692  37.3982855
  53.0256129  57.9010570  47.1752099  52.6323075  57.3476768  47.8499743
  53.8422270  58.2121148  47.5658617  49.9918187  69.3394428  31.0865669
  50.5042708  70.1337678  31.2371234  50.6440900  68.6420718  31.0199270
  51.8013072  72.4560184  33.1688422  51.9779700  73.3778149  32.9809406
  52.5969905  72.1418603  33.5982802  55.9424090  59.3168449  44.7672356
  56.6833804  59.9175602  44.6876818  56.1742013  58.5746086  44.2090398
  51.0865428  64.5024816  43.0450585  50.9718944  63.6010073  43.3457684
  50.2309946  64.7488513  42.6935402  56.7211558  70.2389486  43.5142995
  57.2539895  69.4777774  43.2842303  56.1925640  69.9463137  44.2567150
  59.8881253  55.3449552  39.0436637  59.5445523  56.2351193  38.9675748
  60.2560216  55.1551209  38.1806222  47.9567104  67.6683082  31.8625239
  48.7942326  68.0780090  31.6458947  48.1345372  66.7282524  31.8325433
  59.8531536  65.3358163  27.5509072  59.3378160  66.1062767  27.7897460
  59.5808845  64.6623299  28.1742134  57.4378647  60.1807863  32.6094311
  56.5820244  59.7914714  32.4299949  57.8505599  60.2599824  31.7494096
  58.9677794  57.7154207  37.0085870  58.4642589  57.6784342  36.1953676
  59.2608401  58.6246949  37.0682527  55.2120680  57.7992936  36.0152052
  56.0773676  57.6035745  35.6557942  55.2798189  57.5703288  36.9421409
  59.6417839  63.2085255  29.3768854  59.3367975  63.5231404  30.2278997
  60.5948281  63.2866675  29.4196187  52.8182999  60.0295144  33.3868419
  53.3926751  59.8070326  32.6541612  53.4053981  60.0983839  34.1397020
  53.1452586  62.0599605  27.4064304  52.3089898  62.3974292  27.7273579
  53.0057356  61.9248585  26.4691441  55.1205666  56.9036393  32.1143488
  54.4670079  56.5885410  31.4900103  55.0786141  56.2812134  32.8403311
  56.2316871  67.1855688  24.0296781  55.3243933  66.9544942  24.2287930
  56.7287903  66.3893308  24.2170762  58.3543407  63.3918327  36.4391136
  57.4365968  63.6133274  36.2812824  58.7703550  63.4664637  35.5802843
  59.1378455  64.7909742  31.5693816  59.8850274  65.3031140  31.2600938
  59.4070044  64.4693795  32.4298210  57.4105105  67.2868283  28.5520771
  56.5016324  67.0027316  28.6493240  57.4400189  67.7067362  27.6924077
  61.5857292  61.8266859  33.5512606  60.8480049  61.3144245  33.8822848
  61.8384065  61.3867240  32.7395883  61.6868919  54.6043111  34.1454375
  61.9927796  53.7440474  33.8580290  62.4121524  55.1960731  33.9453369
  47.9793275  65.0073797  32.5335973  47.7817675  64.4143158  31.8087039
  47.4239939  64.7026008  33.2511912  55.9589999  64.8996904  34.6530566
  56.0138609  63.9470740  34.5773043  55.1481201  65.0556343  35.1371864
  57.1081193  68.8277027  25.8908849  56.6700623  68.1112886  25.4314487
  57.8491633  69.0553142  25.3293941  53.8982359  63.5173964  32.4120945
  53.0850224  63.8168134  32.8186137  54.3941353  63.1229652  33.1295427
  59.4956570  63.9815788  41.2435839  59.8505958  64.2087261  42.1030305
  60.1428702  64.3134165  40.6213094  53.3896434  61.0892319  38.0282180
  54.0295813  60.9481078  37.3305143  52.5573964  60.8026832  37.6520782
  54.1656737  70.3894750  34.1417172  54.9597336  69.8945070  33.9399747
  53.4548430  69.8612613  33.7784878  50.4739501  64.5337831  30.2176925
  49.5437089  64.4722287  30.4346887  50.5696973  64.0113784  29.4213566
  50.3925050  61.0592644  32.8055167  50.6531867  61.9737977  32.6964327
  51.2142222  60.5917087  32.9551779  51.8649975  62.4730401  39.9753991
  52.5373029  62.2647763  39.3266640  51.0379762  62.2752487  39.5359223
  57.7675547  59.0992342  41.9919652  57.1203462  59.7982292  41.8984128
  58.5376563  59.5328486  42.3595900  57.9439682  66.9373107  40.0516472
  58.8731742  67.0884267  39.8785439  57.5230712  67.0257128  39.1965118
  52.2677473  65.7473004  40.7356428  52.1297270  65.0153243  41.3367967
  53.1782396  65.6581904  40.4540616  54.8959773  65.4592964  40.2240108
  55.6059392  64.8186156  40.1826726  54.8529081  65.7105858  41.1466289
  53.6088707  62.4458181  42.0435747  53.0726064  61.9948920  42.6957344
  53.0205416  62.5804090  41.3006212  53.0190966  61.9046833  24.6062211
  52.1420432  61.7835634  24.2424458  53.4948719  61.1132911  24.3541100
  44.5393106  66.6923993  34.7003718  45.2264146  66.3785723  34.1124734
  44.3841235  67.5965357  34.4270970  49.3427828  61.5814189  39.1288742
  49.2586017  60.9739859  38.3939152  48.5210535  62.0723207  39.1298238
  59.5151542  60.0667753  34.4958937  60.0120242  59.3137715  34.1760007
  58.7438524  60.1032069  33.9302146  56.0986511  62.2085136  34.2230622
  55.7284299  61.6556176  34.9111527  56.5945603  61.6043269  33.6705622
  61.9570537  57.0337346  36.6438296  61.0433617  57.2641573  36.8120503
  62.3863639  57.1175790  37.4952328  61.7276996  65.2227238  39.1438190
  61.0748446  65.4703146  38.4890643  62.1057375  64.4091376  38.8100667
  57.7764569  65.9647049  45.6304227  57.1005206  65.8641178  46.3006602
  58.5992202  65.8086263  46.0940224  49.5243428  72.2018986  38.2516742
  50.1096864  71.4562674  38.3844646  49.3268266  72.5122942  39.1353406
  44.1161082  64.7724586  36.9721185  44.1545182  64.2388177  37.7658303
  43.6101375  64.2459791  36.3532163  51.4951845  59.6189126  40.4683728
  51.5593171  60.4803957  40.0561125  51.4318965  59.0063128  39.7356086
  50.9704117  61.6912259  44.1156762  51.5976156  61.3089336  44.7294286
  50.1132036  61.4726461  44.4812454  47.7469660  63.4988688  30.0475117
  48.0423101  62.5899366  29.9942170  46.8457696  63.4776428  29.7256119
  51.2763907  61.5744685  36.0302665  50.5550493  62.1880652  35.8910139
  52.0657163  62.1102449  35.9519311  54.0790220  58.9099111  42.3043317
  54.6024622  59.1561408  43.0669626  53.8602554  59.7419146  41.8846454
  49.4757502  61.1802786  30.1714442  49.1470208  60.3000165  29.9889548
  49.8296872  61.1250454  31.0590831  52.5899325  61.4675756  30.5389920
  52.9295397  61.9961677  29.8168528  53.0371445  61.8056162  31.3148486
  55.2842766  59.8512806  39.9892988  54.9439586  59.0520619  40.3913668
  54.5781772  60.1514517  39.4169821  55.9359237  56.9362119  38.4420311
  56.7585307  56.4622597  38.3199201  56.1797301  57.7152602  38.9418997
  54.5767472  59.9650377  28.7383212  55.2975834  60.3431630  28.2346929
  53.9532776  60.6839254  28.8418190  58.7198595  60.6695526  29.6741545
  58.9362209  61.5520164  29.3730373  58.2392662  60.2781740  28.9447187
  53.4597816  63.6281239  36.2512289  53.3142397  63.9421542  37.1436571
  52.9823020  64.2466140  35.6983188  55.3194199  60.6183787  36.2993179
  55.3055768  59.7224881  35.9625477  56.0366627  60.6254451  36.9331465
  57.1720330  61.0521128  38.3446306  56.9138108  61.9738198  38.3430637
  56.6405370  60.6551562  39.0346770  47.9343478  66.1686584  39.1899950
  47.3896946  66.9446392  39.3220225  48.8122828  66.5157388  39.0319072
  54.7231095  59.4998168  31.5680749  54.8447006  58.5714814  31.7671636
  54.4333137  59.5136854  30.6559064  57.5922285  57.1853078  34.7047469
  57.6143982  57.2492411  33.7499448  58.0090344  56.3457587  34.8987975
  48.7209500  65.2956480  42.0830107  47.9791236  65.4439115  42.6694738
  48.4002244  65.5564746  41.2196857  49.1666114  73.1821909  34.1140502
  49.9924134  72.8825681  33.7339145  48.8160166  72.4129531  34.5630291
  47.3674719  71.1008235  35.0729436  46.5306627  70.6730410  34.8913437
  47.3398364  71.2940679  36.0100227  54.2072174  61.0130165  45.7770682
  54.2560330  61.8892288  45.3948451  54.7494689  60.4707558  45.2042325
  53.6961154  71.0852300  29.6596636  53.8449274  71.7687765  29.0063309
  54.5027597  71.0657390  30.1746092  62.1028658  64.3894683  43.6863854
  63.0038520  64.2501147  43.3947852  62.1776632  64.5549137  44.6262031
  56.4371463  61.7661537  42.5317040  55.5674772  62.0595103  42.2599629
  56.6730943  62.3501982  43.2524304  51.4513787  67.1117478  30.6657705
  51.2059829  66.2079808  30.8637915  51.6209701  67.1134628  29.7237183
  59.1410497  57.9841154  40.0482461  59.6592441  58.7202181  39.7228949
  58.7865630  58.2905148  40.8829220  50.7209434  62.8445835  28.1643866
  50.0278679  62.9190190  27.5083902  50.4761186  62.0806179  28.6865383
  59.3923091  54.4041437  35.5683357  59.6724845  53.7364626  36.1943784
  60.1773698  54.5970532  35.0558021  63.2631949  62.8259071  39.3154932
  64.2149372  62.9257168  39.3367156  63.0935400  62.0337339  39.8253017
  61.2846329  59.9114654  39.5014333  60.6896261  60.1919667  38.8060822
  60.9996025  60.4008555  40.2731074  57.5803358  64.9161243  24.4724436
  58.5262463  64.7867452  24.5412854  57.2017603  64.1775905  24.9493864
  65.8914516  62.8376234  38.4755515  65.3753564  62.0534691  38.2885444
  66.7754464  62.5094951  38.6402035  63.5525242  56.5817250  34.4351328
  63.3550064  56.2732338  35.3194660  64.1624948  57.3078888  34.5649258
  57.4642050  68.9678990  45.9325093  58.3845060  69.1457589  46.1265140
  57.4291633  68.0235035  45.7804792  55.7646275  62.8411220  24.4079321
  54.8577730  62.5444333  24.4842035  56.0422256  62.5441038  23.5413607
  46.6824215  64.1617583  34.8578368  46.3627000  63.3082891  34.5652742
  46.1357644  64.3766161  35.6136335  50.4604123  66.8780024  38.5747874
  50.6790133  67.8097132  38.5935908  50.8729897  66.5187999  39.3602678
  57.3808341  57.3848110  30.5623563  56.5709069  57.0395195  30.9378809
  58.0692758  57.0755653  31.1511174  59.3098889  56.4626156  32.1847859
  59.8629928  56.8821610  32.8437882  59.5468975  55.5361904  32.2270815
  55.3331988  62.4513230  47.9650623  55.2328715  63.4007587  47.8962714
  55.1153530  62.1231469  47.0926693  54.5345060  59.6998155  24.5491300
  55.3964224  60.0253053  24.8087118  54.7195404  58.9129651  24.0364366
  46.5512475  67.7820495  36.8271489  45.8575947  67.3674448  36.3141444
  47.2985466  67.8241031  36.2304908  62.6877696  58.5726682  31.6926523
  62.1076365  59.2311486  31.3104576  62.4213629  57.7504026  31.2813941
  61.1381263  57.9731739  33.8947844  61.6381041  58.0848274  33.0862163
  61.7816870  57.6692792  34.5348652  55.1963258  65.8810369  46.7815685
  54.7130340  66.6810729  46.9879574  55.2824197  65.8918314  45.8283129
  48.4649218  67.7138749  34.7037504  48.4419906  67.8126436  33.7519387
  48.7749854  68.5603899  35.0254670  51.1236596  69.7714904  38.8184119
  52.0779849  69.7398846  38.7514050  50.9249119  69.3105527  39.6334344
  51.7135978  68.3416020  41.3854916  52.5328867  68.8360098  41.4089753
  51.9872786  67.4247988  41.3572484  61.4702574  60.7326772  30.7482872
  60.5828429  61.0176423  30.5303066  61.8856563  60.5720535  29.9010149
  64.8217110  60.7573293  34.4637211  65.5977500  61.2469745  34.7361828
  64.0965244  61.1831347  34.9209080  67.2589669  61.4700912  35.5211152
  67.8534160  61.2296648  34.8104460  67.3316253  60.7508043  36.1484688
  61.4443598  66.2481308  30.9633162  61.3878799  66.7049859  30.1240794
  61.9971940  65.4871992  30.7856005  65.2548404  62.0371040  31.7883281
  64.9985338  61.6367675  32.6191489  64.6301272  62.7514834  31.6633421
  46.9670892  62.6754153  42.0847113  47.6129756  62.1653107  42.5734338
  46.7588043  63.4122835  42.6590538  55.4874503  56.9394198  27.8371009
  55.4753173  57.8836038  27.9939280  56.3797925  56.7564344  27.5430471
  59.3026622  53.5336975  32.0916946  58.5359018  52.9795461  32.2373629
  59.7137327  53.6058844  32.9531098  51.3068383  59.8221771  46.1822127
  52.1699845  59.4658575  46.3925452  50.7333794  59.4835665  46.8697532
  27.7941743  -2.8581921  23.7129835  28.4320153  -2.9775174  23.0093175
  27.6762586  -1.9101077  23.7717787  24.6031450  -2.9054493  23.6491360
  24.2649961  -3.0213428  22.7611895  25.4721218  -3.3063328  23.6292366
  25.0851233  -1.7519641  29.6077565  25.0739873  -2.1466843  28.7358069
  25.2471872  -2.4853569  30.2011337  18.0082697   0.4432175  22.4772471
  18.8003989   0.1023000  22.0618771  18.2479348   0.5527150  23.3974625
  21.8058494   1.0317470  28.5556749  21.5148360   1.9363101  28.4403416
  22.4415478   1.0733998  29.2700819  22.7314701  -1.5905681  25.1458109
  23.3278273  -1.8149659  24.4315072  22.7889672  -2.3320936  25.7483557
  26.7648379   0.7178886  25.5506543  26.4649102   1.6203925  25.4422350
  26.4199438   0.4511069  26.4027696  21.7469159   7.4823206  18.5177511
  21.6693188   8.4331031  18.5965991  21.1430802   7.1369079  19.1752437
  24.2386388  -5.3448928  31.1738878  23.4619723  -4.7855008  31.1641742
  24.8776952  -4.8592145  31.6953748  22.4932761  -2.5363475  30.7356845
  23.2347445  -1.9978431  30.4591668  21.7869746  -1.9097186  30.8928396
  27.9688100  -0.3934334  29.3329006  28.3771456  -0.8351924  28.5883638
  27.2465362  -0.9681707  29.5863199  28.2916915   0.1666856  23.0881295
  27.6625778   0.3312570  22.3857363  27.9042577   0.5808466  23.8592259
  32.1706147   1.1021294  20.4425659  31.4857185   1.4820195  19.8922692
  32.2549996   1.7116621  21.1757606  29.4257079  -1.2518747  27.0421002
  29.6373974  -0.6086987  26.3655383  29.3786827  -2.0856430  26.5742932
  23.8444877  -0.0958736  20.3531380  24.3083222   0.1828967  19.5636003
  23.5801675  -0.9975291  20.1704471  20.7368958  -0.5487254  23.2911143
  21.3070315  -0.1199986  22.6528628  21.3277070  -0.8304670  23.9895329
  30.5402907   1.6253208  25.2143360  31.3620350   1.2233396  24.9326041
  30.5365309   1.5221443  26.1659475  24.3059510   1.1737252  27.3704070
  24.3703942   1.6357659  28.2062242  23.5970434   0.5434617  27.4986380
  24.0207528   2.8405359  17.2383050  23.8853202   3.6856895  17.6667898
  24.5617340   3.0424637  16.4748984  19.2831810   3.4746554  19.8933729
  19.4598438   4.3964518  19.7054713  20.0788643   3.1604973  20.3228108
  25.6476004   3.4628926  31.3683393  25.2039858   2.6765304  31.0504297
  26.3093218   3.6508076  30.7027283  20.4063125   4.9924727  25.8944071
  20.9570550   4.8641791  25.1221065  19.5674601   5.2919616  25.5438964
  27.7457242   3.7431726  29.3964794  27.7275717   4.5640607  28.9045063
  28.6677162   3.6185801  29.6214935  24.2030296   1.2575855  30.2388302
  24.7358633   0.4964143  30.0087610  23.6744377   0.9649507  30.9812457
  32.3084548  -0.8923113  16.2107552  31.5313991  -1.2311954  15.7662715
  32.9876029  -0.8870490  15.5362518  30.5475855  -1.4189132  22.8674160
  29.8899529  -0.7289870  22.9554289  31.3516254  -1.0292700  23.2108147
  29.3581314  -3.0644759  20.9178102  29.8713196  -2.4314767  21.4199812
  30.0082538  -3.6643564  20.5521462  26.6203688   6.9139565  13.6738773
  25.9465387   7.2171262  14.2823731  27.0069510   7.7168645  13.3244230
  30.1243110   1.9161242  19.0457245  29.6705437   1.0752152  19.1022435
  29.4937077   2.5522641  19.3832025  28.5676049   3.7537739  19.9807063
  28.8599024   4.3142796  19.2619429  29.0774670   4.0466300  20.7360222
  23.4408737  -4.0816727  21.3775873  23.4957346  -5.0342890  21.3018349
  22.6299939  -3.9257288  21.8617171  23.5309674   4.5318090  21.0700516
  23.4885853   4.7578936  20.1409048  24.4472373   4.2981465  21.2186317
  32.7073045  -1.8779407  18.6730474  32.5690944  -1.6877811  17.7451664
  32.3509264  -1.1160024  19.1298526  32.7342425   0.1897120  23.6841746
  33.1678931   0.0972410  24.5324800  33.4474005   0.1654621  23.0461762
  21.6475475   1.4081119  20.8662479  22.4416074   0.9131439  20.6645054
  20.9367168   0.8798982  20.5030184  26.4670320   3.7899215  25.2174847
  26.5207342   4.3590151  25.9852562  25.5985101   3.9601100  24.8528884
  33.5957974   0.2320821  26.2174631  33.7893864   1.1366632  26.4633906
  33.4958592  -0.2271760  27.0513216  28.6573083   0.3827564  31.7915512
  28.5058589   0.1538116  30.8745596  28.6477762   1.3398165  31.8046857
  25.4258419  -2.0440523  26.7761778  26.3550479  -1.8929364  26.6030746
  25.0049449  -1.9556503  25.9210425  24.2246751   1.9810141  24.5460316
  24.0857837   1.6128925  25.4186254  23.4361347   2.4957780  24.3744274
  24.8194903   7.0819238  15.8885853  24.9946659   6.6107281  16.7031475
  24.1327691   7.7085004  16.1167113  25.7751966   1.3591744  21.9349154
  25.4401799   1.3192514  22.8306804  25.2755912   0.6936460  21.4619564
  22.3778511  -3.5220667  26.9485415  23.0878129  -4.1627475  26.9072033
  22.3347819  -3.2707772  27.8711595  30.3665290   3.4146686  29.8691994
  30.3077836   2.7305907  29.2022577  30.7684808   4.1565676  29.4172620
  19.3855988  10.2308600  22.6625713  19.6252587  10.8627124  23.3404731
  18.5425185   9.8796640  22.9491072  30.3682697   1.3786270  28.1005973
  29.4809476   1.0412192  28.2232372  30.9381248   0.6469302  28.3374739
  23.8983850   6.0387723  25.0667217  23.8254022   6.8442694  25.5786521
  23.4561243   6.2379689  24.2415238  23.6873630   5.2759493  18.5770038
  22.9041152   5.8181173  18.6708263  24.3866375   5.7933472  18.9764279
  26.3582534   5.9374557  27.2225375  27.0710506   6.5722022  27.1501277
  25.8672562   6.0338423  26.4065377  28.0800061  -0.1574191  18.7942667
  27.1456339  -0.0372728  18.6247371  28.2576729  -1.0601724  18.5302677
  21.4094447   3.6869000  28.0430946  22.1103907   4.3205483  28.1960340
  20.9389562   4.0283732  27.2826585  29.5348843   2.0286950  16.3278853
  29.8108687   1.9143545  17.2372727  28.6653342   1.6304435  16.2891026
  26.1702907   6.2773301  19.9711667  26.3525302   5.4594957  20.4339419
  26.9935893   6.4940993  19.5336557  26.5045073   5.2041486  17.2326715
  27.0332839   4.6933941  16.6196877  26.7673292   4.8884016  18.0972248
  25.2583306  -3.0166581  32.3549534  24.5823943  -3.1172452  33.0251909
  26.0810940  -3.1727368  32.8185531  17.0062165   3.2205355  24.9762049
  17.5915602   2.4749043  25.1089953  16.8087004   3.5309312  25.8598713
  19.8600821   6.2556603  19.9924491  19.1911196   6.7402730  19.5088531
  19.7213690   6.5025823  20.9067870  24.0006089   8.2900346  26.5907150
  24.5524397   8.4531968  27.3556235  24.3412283   8.8804784  25.9187174
  28.8516964   3.1161604  32.4455804  29.3956868   3.7291562  31.9510759
  28.2703808   3.6741182  32.9622817  27.1374476   6.2382322  23.5770832
  27.0125616   5.4372062  23.0681777  27.7953568   6.7328515  23.0884802
  29.2009385   4.0391342  25.2050382  28.2539720   3.9196693  25.1328709
  29.5492158   3.1513840  25.2876643  26.2055818   3.8344058  21.4054734
  26.0580781   2.9060765  21.5862304  27.0309312   3.8564149  20.9211809
  29.8089940   4.6572617  22.4919607  30.7336488   4.4515478  22.3544058
  29.6405243   4.4089018  23.4008948  29.5985256   5.1758284  17.8481698
  29.7722134   4.6104707  17.0955551  30.0914147   5.9759179  17.6661188
  30.5860429   4.4925049  14.9478597  31.2811333   5.1131741  15.1665911
  30.9283579   3.6420400  15.2230974  32.4851852   1.9424754  16.4765927
  33.0103176   2.2812027  15.7515247  32.3974204   1.0071769  16.2929062
  24.1471901   5.8558828  28.6055804  24.4559027   5.6107975  29.4778504
  24.9447383   6.0605466  28.1174674  24.1692513   8.0096737  20.8361181
  23.7297503   7.5173116  21.5294037  24.9200630   7.4669705  20.5953256
  16.6484852   4.2008278  20.8385809  17.4742871   3.9012050  20.4584452
  16.2978904   3.4315901  21.2875597  21.6166385   3.5534746  22.9083482
  20.9946394   2.8905452  22.6085710  22.2871252   3.5795878  22.2257130
  14.8493457   2.1194605  21.7974742  14.0125365   1.6916779  21.6158743
  14.8217102   2.3127048  22.7345533  32.1745758   2.5757658  31.7817125
  31.3841302   2.5581797  31.2421625  31.9379112   3.1145951  32.5366162
  32.2943633  -0.5749876  29.0949854  32.3441638  -0.7399868  30.0365377
  32.1857556  -1.4422617  28.7047735  33.7961830   1.8447066  29.3391875
  33.5046638   2.2077046  30.1755336  33.1833961   1.1314074  29.1605207
  34.9957512  -0.5900055  21.8594446  35.8304403  -0.1510250  22.0232006
  35.1316641  -1.0661401  21.0402691  27.8972557   4.8823950  14.9862272
  28.8303230   4.8169512  15.1895148  27.8095770   5.7180217  14.5276805
  24.9460788  -0.0134641  32.6570400  25.8663798   0.1643958  32.8510446
  24.9110371  -0.9578595  32.5050099  22.6781996  -3.1003262  33.5060991
  22.1949078  -2.3002901  33.7124880  22.7642935  -3.0895317  32.5528435
  18.6055334   0.7901273  25.5429425  19.5598587   0.7585215  25.4759357
  18.4067857   0.3291897  26.3579651  19.1954716  -0.6397611  28.1100223
  20.0147605  -0.1453532  28.1335060  19.4691523  -1.5565643  28.0817790
  16.9605562   6.3320893  22.5599623  16.8260030   5.5721294  21.9937621
  16.5437625   7.0561792  22.0928412  20.1174688   7.2290210  22.7718066
  20.0007072   8.1735642  22.6696756  19.2967135   6.9263771  23.1603865
  26.9743022   0.7621371  34.3084560  27.8434182   0.9362023  33.9471195
  26.4949774   1.5815787  34.1860290  21.1429202   7.8818472  25.9873994
  22.0456449   7.9142082  26.3040489  20.9166572   6.9518922  26.0020330
  22.8982804   6.6349458  22.6484073  21.9478435   6.6351320  22.5348445
  23.2015291   5.8882193  22.1320107  38.6335498  12.4709996  23.7129835
  39.2713908  12.3516744  23.0093175  38.5156341  13.4190840  23.7717787
  35.4425204  12.4237425  23.6491360  35.1043716  12.3078489  22.7611895
  36.3114972  12.0228590  23.6292366  31.3012020  14.2772901  19.6388251
  30.7376885  14.1862838  18.8704539  31.1864415  13.4572805  20.1190743
  35.9244987  13.5772276  29.6077565  35.9133628  13.1825075  28.7358069
  36.0865627  12.8438349  30.2011337  28.8476452  15.7724093  22.4772471
  29.6397744  15.4314917  22.0618771  29.0873102  15.8819068  23.3974625
  36.8811579  17.9443869  14.9502716  36.2299558  18.5297949  14.5636729
  37.6755941  18.4750064  15.0097753  30.8067206  15.0333006  15.3489850
  31.5798082  14.4861993  15.2102726  31.1592605  15.8977255  15.5604311
  33.5708455  13.7386237  25.1458109  34.1672027  13.5142259  24.4315072
  33.6283427  12.9970982  25.7483557  33.1433484  11.1925672  12.9808300
  33.3959004  10.6707193  12.2191763  32.2058043  11.0291817  13.0834984
  38.1876766  10.1961450  20.7883043  38.9739856   9.7780873  20.4373460
  38.4515471  11.1007543  20.9564692  38.3586844  15.6334301  15.4871700
  37.7232677  15.7068927  16.1992605  38.0284250  16.2227899  14.8090779
  43.5885194  10.1336684  21.6916022  44.3210365   9.5635900  21.9253851
  42.8324549   9.7458284  22.1322527  32.8629772  13.0953778  15.1832675
  32.7466030  12.4198681  15.8513759  32.9732032  12.6086152  14.3664828
  35.2061313  12.5563925  18.8879364  34.8419520  12.0294546  19.5992286
  36.0628429  12.1662394  18.7145850  41.1110614   3.8458258  26.1510630
  40.7793939   4.7153669  25.9271845  40.5156227   3.5294542  26.8304661
  34.8466800   7.5853825  13.8840713  35.0141203   8.4534061  14.2511184
  34.6563969   7.7481106  12.9602002  37.6042133  16.0470804  25.5506543
  37.3042857  16.9495842  25.4422350  37.2593193  15.7802987  26.4027696
  31.0554615  12.4984600  21.5843247  30.1305111  12.3660815  21.7920939
  31.3039028  13.2778820  22.0813190  41.0039277   8.5653344  23.2303980
  40.0956155   8.4968752  22.9362741  40.9526873   9.0425289  24.0585806
  34.8256021  10.0411482  14.8687379  34.7055646  10.4868533  15.7072860
  34.1308609  10.3896800  14.3100918  28.4163426  12.1417874  22.4187036
  28.5455807  12.3952353  23.3326448  27.7360877  12.7345582  22.0991692
  35.0780143   9.9842989  31.1738878  34.3013477  10.5436910  31.1641742
  35.7170706  10.4699772  31.6953748  42.8700924   6.7669782  25.0081854
  42.2275304   7.0602315  24.3621649  42.3655852   6.6522703  25.8135051
  40.5241087  10.5132955  15.6967714  41.4358943  10.7460342  15.5215411
  40.0150734  11.0970000  15.1342792  33.3326515  12.7928443  30.7356845
  34.0741200  13.3313487  30.4591668  32.6263501  13.4194732  30.8928396
  38.8081855  14.9357583  29.3329006  39.2165211  14.4939994  28.5883638
  38.0859116  14.3610211  29.5863199  35.1612925   9.8730190  26.7062563
  36.0074120  10.2969604  26.8497212  35.1011563   9.2163814  27.4001126
  39.1310670  15.4958774  23.0881295  38.5019532  15.6604488  22.3857363
  38.7436332  15.9100383  23.8592259  43.0099901  16.4313212  20.4425659
  42.3250940  16.8112113  19.8922692  43.0943751  17.0408538  21.1757606
  38.3112370   7.5334558  28.3643737  38.0673302   8.2876619  27.8278012
  38.5872301   7.9119906  29.1990984  40.2650833  14.0773171  27.0421002
  40.4767728  14.7204931  26.3655383  40.2180581  13.2435487  26.5742932
  37.8677062   6.6890991  23.9457574  37.0061541   6.9872245  24.2374312
  37.8939497   6.9061390  23.0138607  34.6838631  15.2333182  20.3531380
  35.1476977  15.5120885  19.5636003  34.4195430  14.3316627  20.1704471
  31.5762713  14.7804663  23.2911143  32.1464070  15.2091932  22.6528628
  32.1670824  14.4987248  23.9895329  33.6207518  11.3556334  17.1620945
  34.3231561  11.8077378  17.6294872  33.2888146  10.7140153  17.7900838
  32.0687879   9.9468091  31.5372155  31.4386540  10.6284372  31.7707551
  31.9623967   9.8351173  30.5925293  27.3632851   9.6139887  22.4638079
  26.5731905   9.8697416  21.9878189  27.8544099  10.4288225  22.5690119
  41.3796661  16.9545126  25.2143360  42.2014105  16.5525313  24.9326041
  41.3759064  16.8513360  26.1659475  29.3147597   9.9784466  19.4221555
  28.5178760  10.0903160  19.9405051  29.0873189  10.3171118  18.5562446
  25.6470554   9.8670377  24.8953070  25.8978593  10.7517387  25.1610646
  26.1830103   9.6874979  24.1228161  49.4702654  13.2983875  21.5628331
  48.7166362  12.7291273  21.4072335  49.6050195  13.2646539  22.5098966
  34.8601282  18.1697277  17.2383050  34.7246957  19.0148813  17.6667898
  35.4011095  18.3716555  16.4748984  31.3468622   4.2488857  33.8997406
  30.9535567   3.6955055  34.5745050  32.1634762   4.5599435  34.2903923
  28.3130680  15.6872715  17.8110976  28.8255200  16.4815965  17.9616540
  28.9653392  14.9899005  17.7444577  30.1225564  18.8038471  19.8933729
  30.2992193  19.7256436  19.7054713  30.9182398  18.4896890  20.3228108
  34.2636583   5.6646736  31.4917662  35.0046296   6.2653889  31.4122125
  34.4954506   4.9224374  30.9335705  29.4077921  10.8503103  29.7695892
  29.2931436   9.9488360  30.0702991  28.5522439  11.0966800  29.4180708
  36.4869759  18.7920843  31.3683393  36.0433613  18.0057222  31.0504297
  37.1486972  18.9799994  30.7027283  38.2093746   1.6927839  25.7681944
  37.8658015   2.5829480  25.6921054  38.5772708   1.5029496  24.9051529
  26.2779596  14.0161369  18.5870546  27.1154818  14.4258378  18.3704254
  26.4557864  13.0760811  18.5570740  38.1744028  11.6836450  14.2754379
  37.6590652  12.4541055  14.5142766  37.9021337  11.0101586  14.8987440
  35.7591139   6.5286151  19.3339617  34.9032736   6.1393001  19.1545256
  36.1718091   6.6078111  18.4739403  37.2890286   4.0632494  23.7331177
  36.7855082   4.0262629  22.9198982  37.5820893   4.9725237  23.7927834
  33.5333172   4.1471224  22.7397359  34.3986169   3.9514032  22.3803248
  33.6010681   3.9181575  23.6666716  43.1478303  14.4368805  16.2107552
  42.3707745  14.0979964  15.7662715  43.8269784  14.4421428  15.5362518
  37.9630332   9.5563542  16.1014160  37.6580467   9.8709691  16.9524303
  38.9160774   9.6344962  16.1441493  36.4076763  15.7153765  17.7507114
  35.8798125  14.9806525  17.4380352  35.9064266  16.4928442  17.5047082
  41.3869609  13.9102786  22.8674160  40.7293284  14.6002047  22.9554289
  42.1910009  14.2999218  23.2108147  31.1395491   6.3773432  20.1113726
  31.7139243   6.1548613  19.3786919  31.7266473   6.4462126  20.8642327
  40.1975068  12.2647159  20.9178102  40.7106950  12.8977150  21.4199812
  40.8476292  11.6648354  20.5521462  31.4665078   8.4077893  14.1309611
  30.6302390   8.7452579  14.4518886  31.3269848   8.2726872  13.1936748
  33.4418159   3.2514681  18.8388795  32.7882571   2.9363698  18.2145410
  33.3998633   2.6290421  19.5648618  34.5529364  13.5333976  10.7542087
  33.6456425  13.3023229  10.9533236  35.0500396  12.7371595  10.9416069
  37.4597443  22.2431483  13.6738773  36.7859141  22.5463180  14.2823731
  37.8463264  23.0460563  13.3244230  36.6755899   9.7396614  23.1636443
  35.7578460   9.9611561  23.0058131  37.0916043   9.8142925  22.3048150
  37.4590947  11.1388030  18.2939123  38.2062766  11.6509427  17.9846245
  37.7282536  10.8172082  19.1543517  35.7317597  13.6346570  15.2766077
  34.8228816  13.3505603  15.3738547  35.7612681  14.0545649  14.4169384
  40.9636864  17.2453160  19.0457245  40.5099192  16.4044070  19.1022435
  40.3330831  17.8814558  19.3832025  39.9069784   8.1745146  20.2757912
  39.1692541   7.6622532  20.6068155  40.1596558   7.7345528  19.4641189
  39.4069804  19.0829657  19.9807063  39.6992778  19.6434714  19.2619429
  39.9168424  19.3758218  20.7360222  40.0081411   0.9521398  20.8699682
  40.3140288   0.0918761  20.5825597  40.7334016   1.5439018  20.6698675
  26.3005767  11.3552085  19.2581279  26.1030167  10.7621445  18.5332346
  25.7452431  11.0504295  19.9757218  34.2802491  11.2475191  21.3775873
  34.3351101  10.2949027  21.3018349  33.4693693  11.4034630  21.8617171
  35.4293685  15.1755314  12.6154156  34.9913115  14.4591173  12.1559793
  36.1704126  15.4031429  12.0539247  32.2194851   9.8652251  19.1366251
  31.4062717  10.1646421  19.5431444  32.7153845   9.4707940  19.8540734
  37.8169063  10.3294075  27.9681145  38.1718450  10.5565548  28.8275611
  38.4641194  10.6612452  27.3458401  43.5466800  13.4512511  18.6730474
  43.4084698  13.6414107  17.7451664  43.1903018  14.2131894  19.1298526
  31.7108926   7.4370606  24.7527486  32.3508305   7.2959365  24.0550450
  30.8786456   7.1505120  24.3766088  43.5736179  15.5189038  23.6841746
  44.0072686  15.4264327  24.5324800  44.2867760  15.4946539  23.0461762
  32.4869230  16.7373037  20.8662479  33.2809828  16.2423357  20.6645054
  31.7760922  16.2090900  20.5030184  37.3064074  19.1191132  25.2174847
  37.3601096  19.6882069  25.9852562  36.4378856  19.2893017  24.8528884
  28.7951993  10.8816118  16.9422232  27.8649581  10.8200574  17.1592194
  28.8909465  10.3592071  16.1458873  28.7137542   7.4070931  19.5300473
  28.9744359   8.3216265  19.4209634  29.5354715   6.9395374  19.6797086
  30.1862468   8.8208688  26.6999298  30.8585521   8.6126051  26.0511947
  29.3592254   8.6230774  26.2604530  44.4351729  15.5612739  26.2174631
  44.6287619  16.4658549  26.4633906  44.3352347  15.1020158  27.0513216
  36.0888040   5.4470629  28.7164959  35.4415955   6.1460579  28.6229435
  36.8589055   5.8806773  29.0841207  39.4966837  15.7119482  31.7915512
  39.3452344  15.4830033  30.8745596  39.4871517  16.6690083  31.8046857
  36.2652174  13.2851394  26.7761778  37.1944234  13.4362554  26.6030746
  35.8443204  13.3735415  25.9210425  35.0640506  17.3102059  24.5460316
  34.9251591  16.9420843  25.4186254  34.2755102  17.8249698  24.3744274
  35.6588658  22.4111155  15.8885853  35.8340413  21.9399198  16.7031475
  34.9721446  23.0376921  16.1167113  36.6145721  16.6883661  21.9349154
  36.2795553  16.6484431  22.8306804  36.1149667  16.0228377  21.4619564
  30.5889965  12.0951291  27.4601735  30.4509763  11.3631530  28.0613274
  31.4994888  12.0060192  27.1785923  39.5504912  14.0339696  12.2086213
  38.9334083  13.3086524  12.1119266  39.0821401  14.7949056  11.8653288
  33.2172265  11.8071251  26.9485415  33.9271884  11.1664443  26.9072033
  33.1741574  12.0584146  27.8711595  31.9301199   8.7936469  28.7681054
  31.3938556   8.3427207  29.4202650  31.3417908   8.9282378  28.0251518
  31.3403458   8.2525120  11.3307518  30.4632925   8.1313921  10.9669764
  31.8161211   7.4611198  11.0786406  41.2076451  16.7078188  28.1005973
  40.3203230  16.3704110  28.2232372  41.7775002  15.9761219  28.3374739
  22.8605599  13.0402280  21.4249025  23.5476638  12.7264010  20.8370040
  22.7053727  13.9443644  21.1516276  27.6640321   7.9292476  25.8534049
  27.5798509   7.3218146  25.1184458  26.8423027   8.4201495  25.8543545
  34.5267384  20.6051410  18.5770038  33.7434906  21.1473091  18.6708263
  35.2260130  21.1225390  18.9764279  37.8364035   6.4146040  21.2204244
  38.3332734   5.6616002  20.9005314  37.0651016   6.4510357  20.6547453
  45.6893792  12.1186405  22.8622535  45.6783668  13.0011121  22.4916468
  44.8211171  11.7657956  22.6677072  38.9193815  15.1717727  18.7942667
  37.9850094  15.2919190  18.6247371  39.0970484  14.2690194  18.5302677
  34.4199003   8.5563423  20.9475928  34.0496791   8.0034463  21.6356834
  34.9158096   7.9521556  20.3950928  42.3066367  11.0135046  19.3292701
  42.7726819  11.8463038  19.2553004  42.7573867  10.5480028  20.0337960
  40.3742598  17.3578868  16.3278853  40.6502442  17.2435462  17.2372727
  39.5047096  16.9596353  16.2891026  40.2783029   3.3815633  23.3683602
  39.3646109   3.6119860  23.5365809  40.7076131   3.4654077  24.2197635
  40.0489488  11.5705525  25.8683497  39.3960938  11.8181433  25.2135949
  40.4269868  10.7569664  25.5345974  37.0096662  21.6065219  19.9711667
  37.1919056  20.7886874  20.4339419  37.8329648  21.8232911  19.5336557
  37.3438827  20.5333404  17.2326715  37.8726594  20.0225858  16.6196877
  37.6067047  20.2175934  18.0972248  36.0977061  12.3125336  32.3549534
  35.4217698  12.2119466  33.0251909  36.9204695  12.1564550  32.8185531
  22.4373575  11.1202873  23.6966492  22.4757674  10.5866464  24.4903610
  21.9313867  10.5938079  23.0777469  29.8164337   5.9667414  27.1929034
  29.8805663   6.8282245  26.7806432  29.7531457   5.3541415  26.4601393
  29.2916609   8.0390546  30.8402069  29.9188648   7.6567624  31.4539593
  28.4344528   7.8204748  31.2057761  39.6910718  18.4453521  32.4455804
  40.2350622  19.0583480  31.9510759  39.1097563  19.0033100  32.9622817
  26.0682152   9.8466975  16.7720423  26.3635593   8.9377654  16.7187477
  25.1670188   9.8254715  16.4501426  29.5976399   7.9222972  22.7547972
  28.8762985   8.5358940  22.6155445  30.3869655   8.4580737  22.6764618
  32.4002713   5.2577398  29.0288624  32.9237115   5.5039695  29.7914933
  32.1815046   6.0897433  28.6091761  27.7969994   7.5281073  16.8959749
  27.4682700   6.6478452  16.7134854  28.1509365   7.4728742  17.7836138
  37.0449573  19.1635976  21.4054734  36.8974535  18.2352683  21.5862304
  37.8703066  19.1856066  20.9211809  30.9111817   7.8154043  17.2635226
  31.2507889   8.3439964  16.5413835  31.3583937   8.1534449  18.0393793
  33.6055258   6.1991094  26.7138294  33.2652078   5.3998907  27.1158974
  32.8994264   6.4992804  26.1415127  34.2571730   3.2840406  25.1665617
  35.0797799   2.8100884  25.0444508  34.5009793   4.0630890  25.6664304
  32.8979964   6.3128664  15.4628519  33.6188327   6.6909917  14.9592236
  32.2745268   7.0317541  15.5663497  37.0411087   7.0173813  16.3986851
  37.2574701   7.8998451  16.0975679  36.5605154   6.6260027  15.6692493
  31.7810308   9.9759527  22.9757596  31.6354889  10.2899830  23.8681877
  31.3035512  10.5944427  22.4228495  33.6406691   6.9662075  23.0238485
  33.6268260   6.0703168  22.6870783  34.3579119   6.9732738  23.6576772
  35.4932822   7.3999415  25.0691613  35.2350600   8.3216485  25.0675943
  34.9617862   7.0029849  25.7592077  26.2555971  12.5164871  25.9145257
  25.7109439  13.2924679  26.0465531  27.1335320  12.8635675  25.7564379
  33.0443587   5.8476455  18.2926056  33.1659498   4.9193101  18.4916943
  32.7545630   5.8615141  17.3804371  35.9134778   3.5331365  21.4292775
  35.9356474   3.5970698  20.4744755  36.3302837   2.6935874  21.6233282
  46.2918402  13.2686625  19.4671998  46.7349548  12.5193950  19.0691121
  45.4144912  13.2596761  19.0845730  41.4254183  19.8216966  14.9478597
  42.1205088  20.4423659  15.1665911  41.7677333  18.9712318  15.2230974
  27.0421992  11.6434767  28.8075414  26.3003728  11.7917403  29.3940044
  26.7214737  11.9043033  27.9442163  43.3245606  17.2716672  16.4765927
  43.8496930  17.6103945  15.7515247  43.2367959  16.3363687  16.2929062
  27.4878606  19.5300196  20.8385809  28.3136626  19.2303968  20.4584452
  27.1372658  18.7607818  21.2875597  25.6887211  17.4486522  21.7974742
  24.8519119  17.0208697  21.6158743  25.6610857  17.6418966  22.7345533
  32.5284667   7.3608452  32.5015988  32.5772822   8.2370575  32.1193758
  33.0707181   6.8185845  31.9287631  43.0139512  17.9049575  31.7817125
  42.2235056  17.8873714  31.2421625  42.7772867  18.4437869  32.5366162
  43.1337387  14.7542042  29.0949854  43.1835392  14.5892049  30.0365377
  43.0251311  13.8869301  28.7047735  32.0173646  17.4330588  16.3841943
  32.1661767  18.1166052  15.7308615  32.8240090  17.4135678  16.8991398
  40.4241150  10.7372970  30.4109161  41.3251013  10.5979435  30.1193158
  40.4989124  10.9027425  31.3507338  34.7583955   8.1139825  29.2562347
  33.8887265   8.4073391  28.9844935  34.9943436   8.6980270  29.9769610
  44.6355584  17.1738983  29.3391875  44.3440393  17.5368964  30.1755336
  44.0227716  16.4605992  29.1605207  45.8351267  14.7391863  21.8594446
  46.6698158  15.1781667  22.0232006  45.9710395  14.2630516  21.0402691
  42.8842773  12.2971598  27.8071933  43.3596894  12.4899244  26.9990785
  41.9608338  12.3530784  27.5615317  29.7726279  13.4595765  17.3903012
  29.5272321  12.5558095  17.5883222  29.9422194  13.4612916  16.4482490
  37.4622989   4.3319442  26.7727767  37.9804933   5.0680468  26.4474256
  37.1078122   4.6383435  27.6074526  29.0421927   9.1924123  14.8889173
  28.3491172   9.2668478  14.2329209  28.7973679   8.4284466  15.4110690
  37.7135583   0.7519724  22.2928664  37.9937337   0.0842913  22.9189090
  38.4986190   0.9448820  21.7803328  35.5169052  19.9278718  13.8553690
  34.9443019  20.5468905  13.4024162  36.0901845  20.4778080  14.3893612
  41.5844442   9.1737358  26.0400239  42.5361864   9.2735456  26.0612463
  41.4147892   8.3815627  26.5498323  39.6058821   6.2592941  26.2259640
  39.0108753   6.5397954  25.5306128  39.3208518   6.7486842  26.9976381
  38.7366311  20.2115868  14.9862272  39.6696985  20.1461430  15.1895148
  38.6489524  21.0472135  14.5276805  41.3654328  19.5281738  11.9466220
  41.2867960  19.1941602  12.8401978  42.1863995  20.0203506  11.9457692
  44.0632519  12.3943478  25.1542539  44.0308839  11.4559478  25.3402222
  44.6733143  12.4727514  24.4208363  35.9015850  11.2639531  11.1969743
  36.8474955  11.1345739  11.2658161  35.5230095  10.5254193  11.6739171
  44.2127008   9.1854521  25.2000822  43.6966056   8.4012978  25.0130751
  45.0966956   8.8573238  25.3647341  41.8737735   2.9295537  21.1596634
  41.6762556   2.6210625  22.0439966  42.4837440   3.6557176  21.2894564
  49.8809069  13.4559485  24.2948575  50.6112458  13.1944773  24.8556279
  49.2716015  12.7188207  24.3350643  47.9624366  11.5967347  24.8923027
  47.2357530  11.4623312  24.2839518  47.5471653  11.9044176  25.6979745
  35.7854543  15.3157277  32.6570400  36.7057552  15.4935876  32.8510446
  35.7504126  14.3713322  32.5050099  34.0858767   9.1889507  11.1324628
  33.1790223   8.8922620  11.2087341  34.3634748   8.8919325  10.2658914
  25.0036708  10.5095871  21.5823674  24.6839492   9.6561179  21.2898048
  24.4570136  10.7244449  22.3381642  28.7816615  13.2258312  25.2993181
  29.0002625  14.1575419  25.3181215  29.1942389  12.8666286  26.0847985
  35.7020833   3.7326397  17.2868869  34.8921561   3.3873482  17.6624115
  36.3905250   3.4233941  17.8756481  37.6311381   2.8104444  18.9093166
  38.1842420   3.2299897  19.5683189  37.8681468   1.8840192  18.9516122
  33.6544481   8.7991517  34.6895930  33.5541207   9.7485874  34.6208021
  33.4366023   8.4709756  33.8172000  24.8724968  14.1298782  23.5516796
  24.1788439  13.7152735  23.0386750  25.6197959  14.1719319  22.9550215
  41.0090188   4.9204969  18.4171830  40.4288857   5.5789773  18.0349882
  40.7426121   4.0982313  18.0059248  39.4593755   4.3210026  20.6193150
  39.9593533   4.4326561  19.8107469  40.1029363   4.0171079  21.2593959
  33.5175751  12.2288656  33.5060991  33.0342832  13.0289016  33.7124880
  33.6036690  12.2396601  32.5528435  26.7861710  14.0617036  21.4282811
  26.7632398  14.1604723  20.4764694  27.0962347  14.9082187  21.7499977
  39.7915066   7.0805059  17.4728178  38.9040921   7.3654710  17.2548373
  40.2069056   6.9198823  16.6255455  43.1429603   7.1051580  21.1882518
  43.9189993   7.5948033  21.4607134  42.4177737   7.5309634  21.6454387
  45.5802161   7.8179199  22.2456458  46.1746652   7.5774935  21.5349766
  45.6528745   7.0986330  22.8729994  27.7999317  21.6612810  22.5599623
  27.6653785  20.9013211  21.9937621  27.3831379  22.3853710  22.0928412
  38.9358280  16.8449734  11.5676198  39.6394130  17.0499736  12.1833854
  38.2120929  17.4126496  11.8325282  39.7656090  12.5959595  17.6878468
  39.7091292  13.0528147  16.8486101  40.3184433  11.8350280  17.5101311
  43.5760896   8.3849327  18.5128588  43.3197830   7.9845963  19.3436796
  42.9513764   9.0993121  18.3878727  47.8873234  11.1245400  21.0199879
  47.3272792  11.1938590  21.7931441  47.2816737  10.9486385  20.2999376
  40.8444977  17.2832263  13.6174658  41.6790581  16.8513462  13.4352133
  40.6829320  17.1114277  14.5451553  40.4990870  13.7864376  14.9830998
  40.4439673  13.6208648  14.0419442  39.8736925  14.4940409  15.1393187
  25.2883384   9.0232441  28.8092420  25.9342248   8.5131395  29.2979645
  25.0800536   9.7601122  29.3835845  37.8136777  16.0913288  34.3084560
  38.6827936  16.2653940  33.9471195  37.3343528  16.9107705  34.1860290
  33.8086995   3.2872485  14.5616316  33.7965665   4.2314325  14.7184587
  34.7010417   3.1042631  14.2675777  37.6239114  -0.1184738  18.8162253
  36.8571510  -0.6726251  18.9618935  38.0349819  -0.0462869  19.6776404
  29.6280875   6.1700058  32.9067434  30.4912337   5.8136863  33.1170759
  29.0546286   5.8313953  33.5942838  47.7205333  33.2735786  14.9502716
  47.0693313  33.8589867  14.5636729  48.5149696  33.8041981  15.0097753
  41.6460960  30.3624924  15.3489850  42.4191836  29.8153911  15.2102726
  41.9986359  31.2269173  15.5604311  43.9827238  26.5217590  12.9808300
  44.2352759  25.9999111  12.2191763  43.0451797  26.3583735  13.0834984
  49.1980598  30.9626218  15.4871700  48.5626431  31.0360845  16.1992605
  48.8678005  31.5519817  14.8090779  54.4278948  25.4628601  21.6916022
  55.1604120  24.8927818  21.9253851  53.6718304  25.0750202  22.1322527
  43.7023527  28.4245696  15.1832675  43.5859785  27.7490599  15.8513759
  43.8125787  27.9378070  14.3664828  51.9504368  19.1750175  26.1510630
  51.6187693  20.0445586  25.9271845  51.3549982  18.8586459  26.8304661
  45.6860555  22.9145742  13.8840713  45.8534957  23.7825979  14.2511184
  45.4957724  23.0773024  12.9602002  45.6649776  25.3703400  14.8687379
  45.5449401  25.8160451  15.7072860  44.9702364  25.7188718  14.3100918
  53.7094678  22.0961700  25.0081854  53.0669058  22.3894233  24.3621649
  53.2049607  21.9814620  25.8135051  51.3634842  25.8424873  15.6967714
  52.2752698  26.0752260  15.5215411  50.8544489  26.4261917  15.1342792
  53.8493656  31.7605129  20.4425659  53.1644694  32.1404031  19.8922692
  53.9337505  32.3700456  21.1757606  44.4601272  26.6848252  17.1620945
  45.1625315  27.1369296  17.6294872  44.1281900  26.0432071  17.7900838
  52.2190416  32.2837044  25.2143360  53.0407859  31.8817231  24.9326041
  52.2152818  32.1805278  26.1659475  60.3096409  28.6275792  21.5628331
  59.5560117  28.0583190  21.4072335  60.4443950  28.5938457  22.5098966
  42.1862376  19.5780774  33.8997406  41.7929322  19.0246973  34.5745050
  43.0028517  19.8891353  34.2903923  39.1524434  31.0164633  17.8110976
  39.6648955  31.8107883  17.9616540  39.8047147  30.3190923  17.7444577
  49.0487500  17.0219756  25.7681944  48.7051770  17.9121398  25.6921054
  49.4166463  16.8321414  24.9051529  49.0137783  27.0128368  14.2754379
  48.4984406  27.7832972  14.5142766  48.7415091  26.3393504  14.8987440
  46.5984894  21.8578068  19.3339617  45.7426490  21.4684919  19.1545256
  47.0111846  21.9370029  18.4739403  44.3726926  19.4763141  22.7397359
  45.2379923  19.2805950  22.3803248  44.4404435  19.2473493  23.6666716
  53.9872057  29.7660722  16.2107552  53.2101500  29.4271882  15.7662715
  54.6663538  29.7713345  15.5362518  48.8024086  24.8855460  16.1014160
  48.4974222  25.2001609  16.9524303  49.7554528  24.9636880  16.1441493
  51.0368823  27.5939076  20.9178102  51.5500704  28.2269068  21.4199812
  51.6870047  26.9940272  20.5521462  42.3058833  23.7369810  14.1309611
  41.4696145  24.0744497  14.4518886  42.1663602  23.6018790  13.1936748
  44.2811913  18.5806598  18.8388795  43.6276326  18.2655615  18.2145410
  44.2392387  17.9582339  19.5648618  45.3923118  28.8625893  10.7542087
  44.4850180  28.6315147  10.9533236  45.8894150  28.0663513  10.9416069
  48.2991197  37.5723400  13.6738773  47.6252896  37.8755097  14.2823731
  48.6857019  38.3752481  13.3244230  48.2984701  26.4679947  18.2939123
  49.0456520  26.9801345  17.9846245  48.5676291  26.1464000  19.1543517
  46.5711352  28.9638488  15.2766077  45.6622571  28.6797521  15.3738547
  46.6006435  29.3837567  14.4169384  51.8030619  32.5745078  19.0457245
  51.3492946  31.7335988  19.1022435  51.1724586  33.2106476  19.3832025
  50.7463539  23.5037064  20.2757912  50.0086295  22.9914450  20.6068155
  50.9990312  23.0637445  19.4641189  50.2463558  34.4121574  19.9807063
  50.5386533  34.9726631  19.2619429  50.7562179  34.7050135  20.7360222
  50.8475166  16.2813316  20.8699682  51.1534043  15.4210679  20.5825597
  51.5727771  16.8730936  20.6698675  46.2687439  30.5047232  12.6154156
  45.8306869  29.7883091  12.1559793  47.0097880  30.7323347  12.0539247
  54.3860554  28.7804429  18.6730474  54.2478453  28.9706025  17.7451664
  54.0296773  29.5423812  19.1298526  54.4129934  30.8480956  23.6841746
  54.8466440  30.7556245  24.5324800  55.1261514  30.8238456  23.0461762
  55.2745483  30.8904657  26.2174631  55.4681373  31.7950467  26.4633906
  55.1746101  30.4312076  27.0513216  50.3898667  29.3631613  12.2086213
  49.7727838  28.6378442  12.1119266  49.9215155  30.1240974  11.8653288
  42.1797213  23.5817038  11.3307518  41.3026679  23.4605839  10.9669764
  42.6554966  22.7903116  11.0786406  48.6757789  21.7437958  21.2204244
  49.1726489  20.9907920  20.9005314  47.9044771  21.7802274  20.6547453
  56.5287546  27.4478323  22.8622535  56.5177423  28.3303039  22.4916468
  55.6604926  27.0949874  22.6677072  49.7587570  30.5009645  18.7942667
  48.8243848  30.6211107  18.6247371  49.9364238  29.5982112  18.5302677
  53.1460121  26.3426964  19.3292701  53.6120573  27.1754956  19.2553004
  53.5967622  25.8771946  20.0337960  51.2136352  32.6870785  16.3278853
  51.4896196  32.5727380  17.2372727  50.3440851  32.2888270  16.2891026
  51.1176784  18.7107551  23.3683602  50.2039864  18.9411778  23.5365809
  51.5469885  18.7945995  24.2197635  48.1832582  35.8625321  17.2326715
  48.7120348  35.3517776  16.6196877  48.4460801  35.5467852  18.0972248
  51.4877449  35.3156452  22.4919607  52.4123996  35.1099313  22.3544058
  51.3192752  35.0672853  23.4008948  43.7373719  21.6420582  15.4628519
  44.4582081  22.0201835  14.9592236  43.1139023  22.3609459  15.5663497
  47.8804841  22.3465731  16.3986851  48.0968456  23.2290369  16.0975679
  47.3998909  21.9551944  15.6692493  51.2772765  35.8342120  17.8481698
  51.4509643  35.2688542  17.0955551  51.7701656  36.6343014  17.6661188
  43.8837342  21.1768373  18.2926056  44.0053253  20.2485019  18.4916943
  43.5939384  21.1907058  17.3804371  46.7528532  18.8623283  21.4292775
  46.7750229  18.9262616  20.4744755  47.1696591  18.0227792  21.6233282
  57.1312156  28.5978542  19.4671998  57.5743302  27.8485868  19.0691121
  56.2538667  28.5888679  19.0845730  52.2647938  35.1508884  14.9478597
  52.9598842  35.7715577  15.1665911  52.6071088  34.3004235  15.2230974
  54.1639361  32.6008589  16.4765927  54.6890685  32.9395862  15.7515247
  54.0761713  31.6655605  16.2929062  42.8567401  32.7622505  16.3841943
  43.0055521  33.4457970  15.7308615  43.6633844  32.7427595  16.8991398
  55.4749339  32.5030901  29.3391875  55.1834147  32.8660882  30.1755336
  54.8621470  31.7897909  29.1605207  56.6745021  30.0683781  21.8594446
  57.5091912  30.5073585  22.0232006  56.8104150  29.5922434  21.0402691
  53.7236527  27.6263516  27.8071933  54.1990649  27.8191162  26.9990785
  52.8002092  27.6822701  27.5615317  40.6120034  28.7887683  17.3903012
  40.3666076  27.8850013  17.5883222  40.7815948  28.7904833  16.4482490
  48.5529338  16.0811642  22.2928664  48.8331091  15.4134831  22.9189090
  49.3379945  16.2740737  21.7803328  46.3562806  35.2570636  13.8553690
  45.7836773  35.8760823  13.4024162  46.9295600  35.8069997  14.3893612
  49.5760066  35.5407786  14.9862272  50.5090739  35.4753347  15.1895148
  49.4883279  36.3764053  14.5276805  52.2048083  34.8573656  11.9466220
  52.1261714  34.5233520  12.8401978  53.0257749  35.3495424  11.9457692
  54.9026274  27.7235395  25.1542539  54.8702594  26.7851396  25.3402222
  55.5126897  27.8019432  24.4208363  46.7409605  26.5931448  11.1969743
  47.6868709  26.4637656  11.2658161  46.3623850  25.8546110  11.6739171
  55.0520762  24.5146439  25.2000822  54.5359811  23.7304895  25.0130751
  55.9360711  24.1865155  25.3647341  52.7131489  18.2587454  21.1596634
  52.5156310  17.9502543  22.0439966  53.3231195  18.9849093  21.2894564
  60.7202824  28.7851402  24.2948575  61.4506212  28.5236690  24.8556279
  60.1109769  28.0480124  24.3350643  58.8018121  26.9259265  24.8923027
  58.0751284  26.7915230  24.2839518  58.3865408  27.2336093  25.6979745
  44.9252522  24.5181425  11.1324628  44.0183977  24.2214537  11.2087341
  45.2028503  24.2211243  10.2658914  46.5414588  19.0618314  17.2868869
  45.7315316  18.7165399  17.6624115  47.2299004  18.7525858  17.8756481
  48.4705136  18.1396361  18.9093166  49.0236174  18.5591815  19.5683189
  48.7075222  17.2132109  18.9516122  43.6951306  21.3768360  11.2736607
  44.5570470  21.7023258  11.5332424  43.8801651  20.5899856  10.7609673
  51.8483943  20.2496886  18.4171830  51.2682612  20.9081690  18.0349882
  51.5819876  19.4274231  18.0059248  50.2987509  19.6501944  20.6193150
  50.7987288  19.7618479  19.8107469  50.9423117  19.3462997  21.2593959
  50.6308821  22.4096977  17.4728178  49.7434676  22.6946627  17.2548373
  51.0462810  22.2490740  16.6255455  53.9823357  22.4343498  21.1882518
  54.7583747  22.9239950  21.4607134  53.2571491  22.8601552  21.6454387
  56.4195916  23.1471117  22.2456458  57.0140407  22.9066853  21.5349766
  56.4922499  22.4278248  22.8729994  49.7752034  32.1741652  11.5676198
  50.4787885  32.3791654  12.1833854  49.0514683  32.7418413  11.8325282
  50.6049845  27.9251513  17.6878468  50.5485046  28.3820064  16.8486101
  51.1578187  27.1642197  17.5101311  54.4154651  23.7141245  18.5128588
  54.1591585  23.3137880  19.3436796  53.7907519  24.4285039  18.3878727
  58.7266988  26.4537318  21.0199879  58.1666546  26.5230507  21.7931441
  58.1210492  26.2778303  20.2999376  51.6838732  32.6124181  13.6174658
  52.5184336  32.1805379  13.4352133  51.5223075  32.4406194  14.5451553
  51.3384624  29.1156294  14.9830998  51.2833428  28.9500565  14.0419442
  50.7130679  29.8232327  15.1393187  44.6480749  18.6164403  14.5616316
  44.6359419  19.5606243  14.7184587  45.5404171  18.4334548  14.2675777
  48.4632869  15.2107180  18.8162253  47.6965265  14.6565666  18.9618935
  48.8743574  15.2829048  19.6776404  40.4674630  21.4991975  32.9067434
  41.3306092  21.1428780  33.1170759  39.8940041  21.1605870  33.5942838
  60.3123007  43.1293832  23.7129835  60.9501417  43.0100579  23.0093175
  60.1943850  44.0774676  23.7717787  57.1212713  43.0821260  23.6491360
  56.7831225  42.9662325  22.7611895  57.9902481  42.6812425  23.6292366
  52.9799529  44.9356736  19.6388251  52.4164394  44.8446673  18.8704539
  52.8651924  44.1156641  20.1190743  57.6032496  44.2356112  29.6077565
  57.5921137  43.8408910  28.7358069  57.7653136  43.5022184  30.2011337
  50.5263961  46.4307928  22.4772471  51.3185253  46.0898753  22.0618771
  50.7660611  46.5402903  23.3974625  58.5599088  48.6027704  14.9502716
  57.9087067  49.1881784  14.5636729  59.3543450  49.1333899  15.0097753
  52.4854715  45.6916841  15.3489850  53.2585591  45.1445828  15.2102726
  52.8380114  46.5561091  15.5604311  54.3239757  47.0193223  28.5556749
  54.0329623  47.9238854  28.4403416  54.9596742  47.0609751  29.2700819
  55.2495964  44.3970072  25.1458109  55.8459536  44.1726094  24.4315072
  55.3070936  43.6554817  25.7483557  54.8220993  41.8509507  12.9808300
  55.0746513  41.3291029  12.2191763  53.8845552  41.6875653  13.0834984
  59.8664275  40.8545286  20.7883043  60.6527365  40.4364709  20.4373460
  60.1302980  41.7591378  20.9564692  60.0374353  46.2918136  15.4871700
  59.4020186  46.3652763  16.1992605  59.7071759  46.8811735  14.8090779
  65.2672703  40.7920519  21.6916022  65.9997874  40.2219736  21.9253851
  64.5112058  40.4042119  22.1322527  54.5417281  43.7537613  15.1832675
  54.4253539  43.0782517  15.8513759  54.6519541  43.2669987  14.3664828
  56.8848822  43.2147760  18.8879364  56.5207029  42.6878381  19.5992286
  57.7415938  42.8246229  18.7145850  62.7898123  34.5042093  26.1510630
  62.4581448  35.3737504  25.9271845  62.1943736  34.1878377  26.8304661
  56.5254309  38.2437660  13.8840713  56.6928712  39.1117896  14.2511184
  56.3351478  38.4064942  12.9602002  59.2829642  46.7054639  25.5506543
  58.9830365  47.6079678  25.4422350  58.9380702  46.4386822  26.4027696
  52.7342124  43.1568436  21.5843247  51.8092620  43.0244650  21.7920939
  52.9826537  43.9362655  22.0813190  62.6826786  39.2237179  23.2303980
  61.7743664  39.1552588  22.9362741  62.6314382  39.7009124  24.0585806
  56.5043530  40.6995318  14.8687379  56.3843155  41.1452368  15.7072860
  55.8096118  41.0480635  14.3100918  50.0950935  42.8001709  22.4187036
  50.2243316  43.0536188  23.3326448  49.4148386  43.3929417  22.0991692
  54.2650422  53.4698959  18.5177511  54.1874452  54.4206784  18.5965991
  53.6612066  53.1244832  19.1752437  64.5488433  37.4253618  25.0081854
  63.9062813  37.7186151  24.3621649  64.0443361  37.3106538  25.8135051
  62.2028596  41.1716791  15.6967714  63.1146452  41.4044178  15.5215411
  61.6938243  41.7553835  15.1342792  60.4869364  45.5941419  29.3329006
  60.8952720  45.1523829  28.5883638  59.7646625  45.0194046  29.5863199
  60.8098179  46.1542609  23.0881295  60.1807041  46.3188323  22.3857363
  60.4223841  46.5684219  23.8592259  64.6887410  47.0897047  20.4425659
  64.0038449  47.4695948  19.8922692  64.7731260  47.6992374  21.1757606
  59.9899879  38.1918394  28.3643737  59.7460811  38.9460454  27.8278012
  60.2659810  38.5703741  29.1990984  61.9438342  44.7357006  27.0421002
  62.1555237  45.3788766  26.3655383  61.8968090  43.9019323  26.5742932
  59.5464571  37.3474827  23.9457574  58.6849050  37.6456080  24.2374312
  59.5727006  37.5645226  23.0138607  56.3626140  45.8917017  20.3531380
  56.8264486  46.1704720  19.5636003  56.0982939  44.9900462  20.1704471
  53.2550222  45.4388499  23.2911143  53.8251579  45.8675767  22.6528628
  53.8458333  45.1571084  23.9895329  55.2995026  42.0140170  17.1620945
  56.0019070  42.4661213  17.6294872  54.9675655  41.3723989  17.7900838
  49.0420360  40.2723722  22.4638079  48.2519414  40.5281251  21.9878189
  49.5331608  41.0872060  22.5690119  63.0584170  47.6128962  25.2143360
  63.8801614  47.2109149  24.9326041  63.0546573  47.5097196  26.1659475
  50.9935106  40.6368302  19.4221555  50.1966269  40.7486996  19.9405051
  50.7660698  40.9754954  18.5562446  56.8240773  47.1613005  27.3704070
  56.8885206  47.6233412  28.2062242  56.1151697  46.5310370  27.4986380
  56.5388791  48.8281112  17.2383050  56.4034466  49.6732648  17.6667898
  57.0798604  49.0300390  16.4748984  49.9918189  46.3456550  17.8110976
  50.5042709  47.1399801  17.9616540  50.6440901  45.6482841  17.7444577
  51.8013073  49.4622307  19.8933729  51.9779702  50.3840271  19.7054713
  52.5969907  49.1480726  20.3228108  58.1657267  49.4504679  31.3683393
  57.7221122  48.6641057  31.0504297  58.8274481  49.6383829  30.7027283
  52.9244389  50.9800480  25.8944071  53.4751814  50.8517544  25.1221065
  52.0855865  51.2795369  25.5438964  60.2638506  49.7307479  29.3964794
  60.2456981  50.5516360  28.9045063  61.1858426  49.6061554  29.6214935
  56.7211560  47.2451608  30.2388302  57.2539897  46.4839896  30.0087610
  56.1925641  46.9525260  30.9812457  59.8881255  32.3511674  25.7681944
  59.5445524  33.2413316  25.6921054  60.2560217  32.1613332  24.9051529
  59.8531537  42.3420285  14.2754379  59.3378161  43.1124890  14.5142766
  59.5808846  41.6685421  14.8987440  57.4378648  37.1869986  19.3339617
  56.5820245  36.7976836  19.1545256  57.8505600  37.2661947  18.4739403
  58.9677795  34.7216329  23.7331177  58.4642591  34.6846464  22.9198982
  59.2608402  35.6309072  23.7927834  55.2120681  34.8055059  22.7397359
  56.0773678  34.6097868  22.3803248  55.2798190  34.5765411  23.6666716
  64.8265812  45.0952640  16.2107552  64.0495254  44.7563799  15.7662715
  65.5057293  45.1005263  15.5362518  59.6417841  40.2147377  16.1014160
  59.3367976  40.5293527  16.9524303  60.5948283  40.2928797  16.1441493
  58.0864272  46.3737601  17.7507114  57.5585634  45.6390360  17.4380352
  57.5851775  47.1512277  17.5047082  63.0657118  44.5686621  22.8674160
  62.4080793  45.2585883  22.9554289  63.8697518  44.9583053  23.2108147
  52.8183000  37.0357267  20.1113726  53.3926752  36.8132448  19.3786919
  53.4053982  37.1045961  20.8642327  61.8762577  42.9230994  20.9178102
  62.3894459  43.5560986  21.4199812  62.5263801  42.3232189  20.5521462
  53.1452587  39.0661728  14.1309611  52.3089899  39.4036415  14.4518886
  53.0057357  38.9310708  13.1936748  55.1205668  33.9098516  18.8388795
  54.4670080  33.5947533  18.2145410  55.0786142  33.2874256  19.5648618
  56.2316873  44.1917811  10.7542087  55.3243934  43.9607064  10.9533236
  56.7287905  43.3955430  10.9416069  59.1384951  52.9015318  13.6738773
  58.4646650  53.2047015  14.2823731  59.5250773  53.7044398  13.3244230
  58.3543408  40.3980449  23.1636443  57.4365969  40.6195396  23.0058131
  58.7703552  40.4726760  22.3048150  59.1378456  41.7971865  18.2939123
  59.8850275  42.3093262  17.9846245  59.4070045  41.4755918  19.1543517
  57.4105106  44.2930406  15.2766077  56.5016325  44.0089439  15.3738547
  57.4400190  44.7129484  14.4169384  62.6424373  47.9036995  19.0457245
  62.1886701  47.0627905  19.1022435  62.0118340  48.5398394  19.3832025
  61.5857293  38.8328981  20.2757912  60.8480050  38.3206368  20.6068155
  61.8384067  38.3929363  19.4641189  61.0857313  49.7413492  19.9807063
  61.3780287  50.3018549  19.2619429  61.5955933  50.0342053  20.7360222
  61.6868920  31.6105233  20.8699682  61.9927797  30.7502597  20.5825597
  62.4121525  32.2022854  20.6698675  55.9590000  41.9059026  21.3775873
  56.0138610  40.9532863  21.3018349  55.1481202  42.0618466  21.8617171
  57.1081194  45.8339149  12.6154156  56.6700624  45.1175008  12.1559793
  57.8491635  46.0615264  12.0539247  53.8982360  40.5236086  19.1366251
  53.0850226  40.8230257  19.5431444  54.3941354  40.1291775  19.8540734
  56.0490938  50.5193843  21.0700516  56.0067117  50.7454689  20.1409048
  56.9653637  50.2857218  21.2186317  59.4956572  40.9877911  27.9681145
  59.8505959  41.2149384  28.8275611  60.1428703  41.3196287  27.3458401
  65.2254309  44.1096347  18.6730474  65.0872207  44.2997942  17.7451664
  64.8690527  44.8715729  19.1298526  65.2523688  46.1772874  23.6841746
  65.6860195  46.0848163  24.5324800  65.9655269  46.1530374  23.0461762
  54.1656739  47.3956872  20.8662479  54.9597337  46.9007192  20.6645054
  53.4548431  46.8674735  20.5030184  58.9851583  49.7774968  25.2174847
  59.0388605  50.3465904  25.9852562  58.1166364  49.9476853  24.8528884
  50.4739502  41.5399954  16.9422232  49.5437090  41.4784409  17.1592194
  50.5696974  41.0175907  16.1458873  50.3925051  38.0654767  19.5300473
  50.6531868  38.9800100  19.4209634  51.2142224  37.5979209  19.6797086
  66.1139238  46.2196574  26.2174631  66.3075128  47.1242385  26.4633906
  66.0139856  45.7603993  27.0513216  57.7675549  36.1054465  28.7164959
  57.1203464  36.8044414  28.6229435  58.5376564  36.5390609  29.0841207
  61.1754346  46.3703317  31.7915512  61.0239853  46.1413869  30.8745596
  61.1659026  47.3273918  31.8046857  57.9439683  43.9435230  26.7761778
  58.8731743  44.0946389  26.6030746  57.5230713  44.0319250  25.9210425
  56.7428015  47.9685894  24.5460316  56.6039100  47.6004678  25.4186254
  55.9542611  48.4833534  24.3744274  57.3376167  53.0694991  15.8885853
  57.5127922  52.5983034  16.7031475  56.6508955  53.6960757  16.1167113
  58.2933230  47.3467497  21.9349154  57.9583062  47.3068267  22.8306804
  57.7937175  46.6812213  21.4619564  61.2292421  44.6923531  12.2086213
  60.6121592  43.9670359  12.1119266  60.7608910  45.4532891  11.8653288
  54.8959774  42.4655086  26.9485415  55.6059393  41.8248278  26.9072033
  54.8529083  42.7167981  27.8711595  62.8846553  49.4022439  29.8691994
  62.8259099  48.7181660  29.2022577  63.2866071  50.1441429  29.4172620
  51.9037252  56.2184353  22.6625713  52.1433850  56.8502877  23.3404731
  51.0606448  55.8672393  22.9491072  53.0190967  38.9108955  11.3307518
  52.1420434  38.7897756  10.9669764  53.4948720  38.1195034  11.0786406
  62.8863960  47.3662023  28.1005973  61.9990739  47.0287945  28.2232372
  63.4562511  46.6345055  28.3374739  56.4165114  52.0263476  25.0667217
  56.3435285  52.8318447  25.5786521  55.9742507  52.2255442  24.2415238
  56.2054893  51.2635246  18.5770038  55.4222415  51.8056926  18.6708263
  56.9047639  51.7809225  18.9764279  59.5151544  37.0729875  21.2204244
  60.0120243  36.3199838  20.9005314  58.7438525  37.1094192  20.6547453
  67.3681301  42.7770241  22.8622535  67.3571177  43.6594956  22.4916468
  66.4998680  42.4241792  22.6677072  58.8763797  51.9250310  27.2225375
  59.5891770  52.5597775  27.1501277  58.3853826  52.0214176  26.4065377
  60.5981324  45.8301562  18.7942667  59.6637603  45.9503025  18.6247371
  60.7757993  44.9274029  18.5302677  56.0986512  39.2147258  20.9475928
  55.7284300  38.6618299  21.6356834  56.5945605  38.6105392  20.3950928
  63.9853876  41.6718882  19.3292701  64.4514328  42.5046873  19.2553004
  64.4361376  41.2063863  20.0337960  53.9275711  49.6744753  28.0430946
  54.6285170  50.3081236  28.1960340  53.4570826  50.0159485  27.2826585
  62.0530107  48.0162703  16.3278853  62.3289951  47.9019298  17.2372727
  61.1834605  47.6180188  16.2891026  61.9570538  34.0399469  23.3683602
  61.0433618  34.2703696  23.5365809  62.3863640  34.1237913  24.2197635
  61.7276997  42.2289361  25.8683497  61.0748447  42.4765268  25.2135949
  62.1057377  41.4153499  25.5345974  58.6884171  52.2649054  19.9711667
  58.8706565  51.4470710  20.4339419  59.5117157  52.4816746  19.5336557
  59.0226336  51.1917239  17.2326715  59.5514103  50.6809694  16.6196877
  59.2854556  50.8759769  18.0972248  52.3782084  52.2432356  19.9924491
  51.7092459  52.7278483  19.5088531  52.2394954  52.4901576  20.9067870
  56.5187353  54.2776099  26.5907150  57.0705661  54.4407721  27.3556235
  56.8593546  54.8680537  25.9187174  61.3698227  49.1037357  32.4455804
  61.9138131  49.7167315  31.9510759  60.7885072  49.6616935  32.9622817
  59.6555740  52.2258075  23.5770832  59.5306879  51.4247815  23.0681777
  60.3134831  52.7204268  23.0884802  51.2763908  38.5806807  22.7547972
  50.5550494  39.1942775  22.6155445  52.0657164  39.1164572  22.6764618
  61.7190648  50.0267095  25.2050382  60.7720984  49.9072446  25.1328709
  62.0673421  49.1389593  25.2876643  58.7237082  49.8219811  21.4054734
  58.5762044  48.8936518  21.5862304  59.5490575  49.8439902  20.9211809
  52.5899326  38.4737878  17.2635226  52.9295398  39.0023799  16.5413835
  53.0371446  38.8118284  18.0393793  62.3271203  50.6448370  22.4919607
  63.2517751  50.4391231  22.3544058  62.1586507  50.3964771  23.4008948
  55.9359239  33.9424241  25.1665617  56.7585308  33.4684719  25.0444508
  56.1797302  34.7214725  25.6664304  54.5767473  36.9712500  15.4628519
  55.2975836  37.3493753  14.9592236  53.9532777  37.6901377  15.5663497
  58.7198596  37.6757649  16.3986851  58.9362210  38.5582287  16.0975679
  58.2392663  37.2843862  15.6692493  53.4597817  40.6343362  22.9757596
  53.3142398  40.9483665  23.8681877  52.9823021  41.2528262  22.4228495
  55.3194200  37.6245910  23.0238485  55.3055769  36.7287003  22.6870783
  56.0366628  37.6316574  23.6576772  57.1720331  38.0583250  25.0691613
  56.9138109  38.9800321  25.0675943  56.6405371  37.6613685  25.7592077
  62.1166520  51.1634037  17.8481698  62.2903397  50.5980460  17.0955551
  62.6095411  51.9634932  17.6661188  54.7231096  36.5060290  18.2926056
  54.8447007  35.5776936  18.4916943  54.4333139  36.5198976  17.3804371
  57.5922287  34.1915201  21.4292775  57.6143983  34.2554534  20.4744755
  58.0090346  33.3519709  21.6233282  67.9705911  43.9270460  19.4671998
  68.4137057  43.1777785  19.0691121  67.0932421  43.9180597  19.0845730
  63.1041692  50.4800802  14.9478597  63.7992597  51.1007494  15.1665911
  63.4464842  49.6296153  15.2230974  65.0033115  47.9300507  16.4765927
  65.5284439  48.2687780  15.7515247  64.9155468  46.9947522  16.2929062
  56.6653164  51.8434581  28.6055804  56.9740290  51.5983728  29.4778504
  57.4628646  52.0481219  28.1174674  56.6873776  53.9972490  20.8361181
  56.2478766  53.5048869  21.5294037  57.4381893  53.4545458  20.5953256
  49.1666115  50.1884031  20.8385809  49.9924135  49.8887803  20.4584452
  48.8160167  49.4191654  21.2875597  54.1347648  49.5410500  22.9083482
  53.5127658  48.8781205  22.6085710  54.8052515  49.5671631  22.2257130
  64.6927021  48.5633411  31.7817125  63.9022565  48.5457550  31.2421625
  64.4560376  49.1021704  32.5366162  64.8124896  45.4125877  29.0949854
  64.8622901  45.2475885  30.0365377  64.7038820  44.5453136  28.7047735
  53.6961155  48.0914423  16.3841943  53.8449275  48.7749887  15.7308615
  54.5027599  48.0719513  16.8991398  62.1028659  41.3956805  30.4109161
  63.0038522  41.2563270  30.1193158  62.1776633  41.5611260  31.3507338
  56.4371464  38.7723660  29.2562347  55.5674774  39.0657226  28.9844935
  56.6730945  39.3564105  29.9769610  66.3143093  47.8322819  29.3391875
  66.0227902  48.1952799  30.1755336  65.7015225  47.1189827  29.1605207
  67.5138776  45.3975698  21.8594446  68.3485667  45.8365503  22.0232006
  67.6497904  44.9214352  21.0402691  64.5630282  42.9555433  27.8071933
  65.0384403  43.1483080  26.9990785  63.6395847  43.0114619  27.5615317
  51.4513788  44.1179601  17.3903012  51.2059830  43.2141930  17.5883222
  51.6209703  44.1196751  16.4482490  59.1410498  34.9903277  26.7727767
  59.6592442  35.7264304  26.4474256  58.7865631  35.2967270  27.6074526
  59.3923092  31.4103559  22.2928664  59.6724846  30.7426748  22.9189090
  60.1773699  31.6032655  21.7803328  57.1956561  50.5862553  13.8553690
  56.6230528  51.2052740  13.4024162  57.7689354  51.1361915  14.3893612
  63.2631951  39.8321193  26.0400239  64.2149373  39.9319291  26.0612463
  63.0935401  39.0399462  26.5498323  61.2846330  36.9176777  26.2259640
  60.6896262  37.1981789  25.5306128  60.9996027  37.4070678  26.9976381
  60.4153820  50.8699703  14.9862272  61.3484494  50.8045265  15.1895148
  60.3277033  51.7055970  14.5276805  65.7420028  43.0527313  25.1542539
  65.7096348  42.1143314  25.3402222  66.3520652  43.1311350  24.4208363
  57.5803359  41.9223366  11.1969743  58.5262464  41.7929574  11.2658161
  57.2017604  41.1838028  11.6739171  65.8914517  39.8438357  25.2000822
  65.3753565  39.0596813  25.0130751  66.7754465  39.5157073  25.3647341
  63.5525244  33.5879372  21.1596634  63.3550065  33.2794460  22.0439966
  64.1624949  34.3141011  21.2894564  69.6411875  42.2551183  24.8923027
  68.9145039  42.1207147  24.2839518  69.2259162  42.5628011  25.6979745
  57.4642052  45.9741112  32.6570400  58.3845061  46.1519711  32.8510446
  57.4291635  45.0297158  32.5050099  55.7646276  39.8473342  11.1324628
  54.8577732  39.5506455  11.2087341  56.0422257  39.5503161  10.2658914
  57.3808342  34.3910232  17.2868869  56.5709070  34.0457317  17.6624115
  58.0692759  34.0817776  17.8756481  59.3098890  33.4688279  18.9093166
  59.8629929  33.8883732  19.5683189  59.5468977  32.5424027  18.9516122
  54.5345061  36.7060278  11.2736607  55.3964225  37.0315176  11.5332424
  54.7195405  35.9191774  10.7609673  62.6877697  35.5788804  18.4171830
  62.1076366  36.2373608  18.0349882  62.4213630  34.7566149  18.0059248
  61.1381264  34.9793862  20.6193150  61.6381042  35.0910396  19.8107469
  61.7816872  34.6754915  21.2593959  61.4702575  37.7388895  17.4728178
  60.5828430  38.0238545  17.2548373  61.8856565  37.5782658  16.6255455
  64.8217112  37.7635415  21.1882518  65.5977502  38.2531868  21.4607134
  64.0965246  38.1893470  21.6454387  67.2589670  38.4763035  22.2456458
  67.8534161  38.2358771  21.5349766  67.3316254  37.7570165  22.8729994
  49.4786826  52.3196646  22.5599623  49.3441294  51.5597047  21.9937621
  49.0618888  53.0437546  22.0928412  60.6145789  47.5033569  11.5676198
  61.3181639  47.7083572  12.1833854  59.8908438  48.0710331  11.8325282
  61.4443599  43.2543430  17.6878468  61.3878801  43.7111982  16.8486101
  61.9971942  42.4934115  17.5101311  65.2548405  39.0433162  18.5128588
  64.9985339  38.6429798  19.3436796  64.6301273  39.7576956  18.3878727
  69.5660743  41.7829236  21.0199879  69.0060301  41.8522425  21.7931441
  68.9604246  41.6070220  20.2999376  52.6355952  53.2165963  22.7718066
  52.5188336  54.1611395  22.6696756  51.8148398  52.9139524  23.1603865
  62.5232486  47.9416098  13.6174658  63.3578090  47.5097297  13.4352133
  62.3616829  47.7698112  14.5451553  62.1778378  44.4448212  14.9830998
  62.1227182  44.2792483  14.0419442  61.5524434  45.1524245  15.1393187
  59.4924286  46.7497124  34.3084560  60.3615445  46.9237776  33.9471195
  59.0131037  47.5691540  34.1860290  55.4874504  33.9456321  14.5616316
  55.4753174  34.8898161  14.7184587  56.3797926  33.7626466  14.2675777
  53.6610466  53.8694225  25.9873994  54.5637713  53.9017835  26.3040489
  53.4347836  52.9394676  26.0020330  55.4164068  52.6225211  22.6484073
  54.4659699  52.6227073  22.5348445  55.7196554  51.8757946  22.1320107
  59.3026623  30.5399097  18.8162253  58.5359019  29.9857584  18.9618935
  59.7137328  30.6120966  19.6776404  67.9606468  58.4113178  23.6491360
  67.6224979  58.2954242  22.7611895  68.8296236  58.0104343  23.6292366
  63.8193283  60.2648654  19.6388251  63.2558149  60.1738591  18.8704539
  63.7045678  59.4448558  20.1190743  68.4426251  59.5648029  29.6077565
  68.4314891  59.1700828  28.7358069  68.6046890  58.8314102  30.2011337
  61.3657715  61.7599846  22.4772471  62.1579007  61.4190670  22.0618771
  61.6054365  61.8694821  23.3974625  65.1633512  62.3485141  28.5556749
  64.8723378  63.2530772  28.4403416  65.7990496  62.3901669  29.2700819
  66.0889719  59.7261990  25.1458109  66.6853291  59.5018012  24.4315072
  66.1464690  58.9846735  25.7483557  63.5735878  58.4860353  21.5843247
  62.6486375  58.3536568  21.7920939  63.8220292  59.2654573  22.0813190
  60.9344689  58.1293627  22.4187036  61.0637071  58.3828106  23.3326448
  60.2542141  58.7221335  22.0991692  67.5961406  55.9718742  31.1738878
  66.8194741  56.5312663  31.1641742  68.2351970  56.4575525  31.6953748
  65.8507779  58.7804196  30.7356845  66.5922463  59.3189240  30.4591668
  65.1444764  59.4070485  30.8928396  67.6794188  55.8605943  26.7062563
  68.5255384  56.2845357  26.8497212  67.6192826  55.2039567  27.4001126
  70.3858326  52.6766744  23.9457574  69.5242805  52.9747998  24.2374312
  70.4120760  52.8937143  23.0138607  64.0943976  60.7680417  23.2911143
  64.6645333  61.1967685  22.6528628  64.6852088  60.4863001  23.9895329
  64.5869143  55.9343844  31.5372155  63.9567803  56.6160125  31.7707551
  64.4805230  55.8226926  30.5925293  59.8814115  55.6015640  22.4638079
  59.0913169  55.8573169  21.9878189  60.3725362  56.4163978  22.5690119
  61.8328860  55.9660219  19.4221555  61.0360024  56.0778913  19.9405051
  61.6054453  56.3046871  18.5562446  58.1651818  55.8546130  24.8953070
  58.4159856  56.7393140  25.1610646  58.7011366  55.6750732  24.1228161
  63.8649885  50.2364610  33.8997406  63.4716831  49.6830808  34.5745050
  64.6816026  50.5475188  34.2903923  66.7817846  51.6522489  31.4917662
  67.5227560  52.2529642  31.4122125  67.0135769  50.9100127  30.9335705
  61.9259184  56.8378856  29.7695892  61.8112699  55.9364113  30.0702991
  61.0703702  57.0842553  29.4180708  67.5605314  62.5743526  30.2388302
  68.0933651  61.8131814  30.0087610  67.0319395  62.2817178  30.9812457
  58.7960860  60.0037122  18.5870546  59.6336082  60.4134131  18.3704254
  58.9739127  59.0636564  18.5570740  68.2772403  52.5161904  19.3339617
  67.4213999  52.1268754  19.1545256  68.6899355  52.5953865  18.4739403
  69.8071550  50.0508247  23.7331177  69.3036345  50.0138382  22.9198982
  70.1002156  50.9600990  23.7927834  66.0514435  50.1346977  22.7397359
  66.9167432  49.9389785  22.3803248  66.1191944  49.9057328  23.6666716
  63.6576755  52.3649185  20.1113726  64.2320506  52.1424366  19.3786919
  64.2447737  52.4337879  20.8642327  65.9599422  49.2390434  18.8388795
  65.3063835  48.9239451  18.2145410  65.9179896  48.6166174  19.5648618
  69.1937163  55.7272367  23.1636443  68.2759724  55.9487314  23.0058131
  69.6097306  55.8018678  22.3048150  58.8187031  57.3427838  19.2581279
  58.6211431  56.7497198  18.5332346  58.2633695  57.0380048  19.9757218
  66.7983755  57.2350944  21.3775873  66.8532364  56.2824780  21.3018349
  65.9874957  57.3910383  21.8617171  64.7376114  55.8528004  19.1366251
  63.9243980  56.1522174  19.5431444  65.2335109  55.4583693  19.8540734
  64.2290189  53.4246359  24.7527486  64.8689569  53.2835118  24.0550450
  63.3967720  53.1380873  24.3766088  65.0050493  62.7248790  20.8662479
  65.7991092  62.2299110  20.6645054  64.2942186  62.1966653  20.5030184
  61.3133257  56.8691872  16.9422232  60.3830845  56.8076327  17.1592194
  61.4090729  56.3467824  16.1458873  61.2318806  53.3946684  19.5300473
  61.4925623  54.3092018  19.4209634  62.0535978  52.9271127  19.6797086
  62.7043731  54.8084442  26.6999298  63.3766784  54.6001804  26.0511947
  61.8773518  54.6106528  26.2604530  68.6069303  51.4346382  28.7164959
  67.9597218  52.1336332  28.6229435  69.3770318  51.8682526  29.0841207
  68.7833437  59.2727147  26.7761778  69.7125497  59.4238307  26.6030746
  68.3624467  59.3611168  25.9210425  63.1071228  58.0827044  27.4601735
  62.9691026  57.3507283  28.0613274  64.0176152  57.9935945  27.1785923
  65.7353529  57.7947004  26.9485415  66.4453147  57.1540196  26.9072033
  65.6922837  58.0459899  27.8711595  64.4482463  54.7812222  28.7681054
  63.9119820  54.3302960  29.4202650  63.8599171  54.9158131  28.0251518
  55.3786862  59.0278033  21.4249025  56.0657902  58.7139763  20.8370040
  55.2234991  59.9319397  21.1516276  60.1821584  53.9168229  25.8534049
  60.0979773  53.3093899  25.1184458  59.3604291  54.4077248  25.8543545
  70.3545298  52.4021793  21.2204244  70.8513998  51.6491755  20.9005314
  69.5832280  52.4386110  20.6547453  66.9380267  54.5439176  20.9475928
  66.5678054  53.9910216  21.6356834  67.4339359  53.9397309  20.3950928
  68.6158324  58.3001089  32.3549534  67.9398961  58.1995219  33.0251909
  69.4385958  58.1440303  32.8185531  60.3637183  64.5373026  24.9762049
  60.9490620  63.7916714  25.1089953  60.1662022  64.8476983  25.8598713
  54.9554838  57.1078626  23.6966492  54.9938938  56.5742217  24.4903610
  54.4495131  56.5813832  23.0777469  62.3345600  51.9543167  27.1929034
  62.3986927  52.8157998  26.7806432  62.2712721  51.3417168  26.4601393
  61.8097873  54.0266299  30.8402069  62.4369912  53.6443377  31.4539593
  60.9525792  53.8080501  31.2057761  58.5863416  55.8342728  16.7720423
  58.8816857  54.9253407  16.7187477  57.6851451  55.8130468  16.4501426
  62.1157663  53.9098725  22.7547972  61.3944248  54.5234693  22.6155445
  62.9050918  54.4456490  22.6764618  64.9183976  51.2453151  29.0288624
  65.4418378  51.4915448  29.7914933  64.6996309  52.0773186  28.6091761
  60.3151257  53.5156826  16.8959749  59.9863963  52.6354205  16.7134854
  60.6690628  53.4604495  17.7836138  63.4293080  53.8029796  17.2635226
  63.7689153  54.3315717  16.5413835  63.8765201  54.1410202  18.0393793
  66.1236521  52.1866847  26.7138294  65.7833342  51.3874660  27.1158974
  65.4175528  52.4868557  26.1415127  66.7752993  49.2716159  25.1665617
  67.5979062  48.7976637  25.0444508  67.0191057  50.0506643  25.6664304
  65.4161228  52.3004417  15.4628519  66.1369590  52.6785670  14.9592236
  64.7926532  53.0193294  15.5663497  64.2991572  55.9635280  22.9757596
  64.1536153  56.2775583  23.8681877  63.8216775  56.5820180  22.4228495
  66.1587955  52.9537828  23.0238485  66.1449523  52.0578921  22.6870783
  66.8760383  52.9608491  23.6576772  68.0114085  53.3875168  25.0691613
  67.7531863  54.3092238  25.0675943  67.4799126  52.9905602  25.7592077
  58.7737234  58.5040624  25.9145257  58.2290702  59.2800432  26.0465531
  59.6516584  58.8511428  25.7564379  65.5624851  51.8352208  18.2926056
  65.6840762  50.9068854  18.4916943  65.2726893  51.8490894  17.3804371
  68.4316041  49.5207118  21.4292775  68.4537738  49.5846451  20.4744755
  68.8484100  48.6811627  21.6233282  59.5603256  57.6310520  28.8075414
  58.8184992  57.7793156  29.3940044  59.2396000  57.8918786  27.9442163
  60.0059870  65.5175949  20.8385809  60.8317889  65.2179721  20.4584452
  59.6553922  64.7483571  21.2875597  58.2068475  63.4362275  21.7974742
  57.3700383  63.0084450  21.6158743  58.1792120  63.6294719  22.7345533
  65.0465930  53.3484205  32.5015988  65.0954086  54.2246328  32.1193758
  65.5888444  52.8061598  31.9287631  67.2765219  54.1015578  29.2562347
  66.4068528  54.3949144  28.9844935  67.5124699  54.6856023  29.9769610
  69.9804252  50.3195195  26.7727767  70.4986196  51.0556221  26.4474256
  69.6259385  50.6259188  27.6074526  61.5603190  55.1799876  14.8889173
  60.8672435  55.2544231  14.2329209  61.3154942  54.4160219  15.4110690
  68.3035806  61.3033030  32.6570400  69.2238816  61.4811629  32.8510446
  68.2685389  60.3589075  32.5050099  57.5217971  56.4971624  21.5823674
  57.2020756  55.6436932  21.2898048  56.9751399  56.7120202  22.3381642
  61.2997879  59.2134065  25.2993181  61.5183889  60.1451172  25.3181215
  61.7123653  58.8542039  26.0847985  68.2202097  49.7202150  17.2868869
  67.4102825  49.3749235  17.6624115  68.9086513  49.4109694  17.8756481
  70.1492645  48.7980197  18.9093166  70.7023683  49.2175650  19.5683189
  70.3862731  47.8715945  18.9516122  66.1725744  54.7867270  34.6895930
  66.0722471  55.7361627  34.6208021  65.9547286  54.4585509  33.8172000
  57.3906231  60.1174535  23.5516796  56.6969703  59.7028488  23.0386750
  58.1379222  60.1595072  22.9550215  66.0357014  58.2164409  33.5060991
  65.5524096  59.0164769  33.7124880  66.1217953  58.2272354  32.5528435
  59.3042974  60.0492789  21.4282811  59.2813662  60.1480476  20.4764694
  59.6143610  60.8957940  21.7499977  61.9630352  62.1068944  25.5429425
  62.9173605  62.0752886  25.4759357  61.7642875  61.6459568  26.3579651
  62.5529734  60.6770060  28.1100223  63.3722623  61.1714139  28.1335060
  62.8266541  59.7602028  28.0817790  57.8064648  55.0108194  28.8092420
  58.4523512  54.5007148  29.2979645  57.5981799  55.7476875  29.3835845
  66.3268258  49.2748238  14.5616316  66.3146928  50.2190078  14.7184587
  67.2191680  49.0918384  14.2675777  70.1420378  45.8691015  18.8162253
  69.3752774  45.3149502  18.9618935  70.5531083  45.9412884  19.6776404
  62.1462139  52.1575811  32.9067434  63.0093601  51.8012616  33.1170759
  61.5727550  51.8189706  33.5942838  34.8399845   0.6254386  13.3152456
  35.3918153   0.7886008  14.0801541  35.1806038   1.2158824  12.6432481
  49.4729254   4.8064037  10.4375142  50.1107664   4.6870784   9.7338482
  49.3550097   5.7544881  10.4963094  46.2818960   4.7591465  10.3736666
  45.9437471   4.6432530   9.4857201  47.1508728   4.3582630  10.3537673
  46.7638743   5.9126317  16.3322872  46.7527384   5.5179115  15.4603376
  46.9259382   5.1792389  16.9256643  39.6870208   8.1078133   9.2017778
  40.4791499   7.7668958   8.7864077  39.9266858   8.2173108  10.1219931
  43.4846004   8.6963428  15.2802056  43.1935870   9.6009059  15.1648722
  44.1202988   8.7379956  15.9946126  44.4102211   6.0740277  11.8703416
  45.0065783   5.8496299  11.1560379  44.4677182   5.3325022  12.4728863
  48.4435889   8.3824844  12.2751850  48.1436612   9.2849883  12.1667657
  48.0986949   8.1157027  13.1273003  41.8948371   4.8338641   8.3088554
  40.9698867   4.7014855   8.5166246  42.1432784   5.6132860   8.8058496
  43.4256669  15.1469164   5.2422817  43.3480699  16.0976989   5.3211298
  42.8218313  14.8015037   5.8997744  45.9173899   2.3197030  17.8984184
  45.1407233   2.8790950  17.8887049  46.5564462   2.8053813  18.4199054
  44.1720271   5.1282483  17.4602151  44.9134955   5.6667527  17.1836975
  43.4657257   5.7548772  17.6173703  49.6475611   7.2711623  16.0574313
  50.0558967   6.8294034  15.3128945  48.9252872   6.6964251  16.3108506
  49.9704425   7.8312814   9.8126602  49.3413288   7.9958528   9.1102669
  49.5830087   8.2454424  10.5837566  51.1044589   6.4127211  13.7666309
  51.3161484   7.0558971  13.0900690  51.0574337   5.5789528  13.2988239
  45.5232387   7.5687222   7.0776687  45.9870733   7.8474925   6.2881309
  45.2589185   6.6670667   6.8949777  42.4156468   7.1158704  10.0156450
  42.9857825   7.5445972   9.3773934  43.0064580   6.8341288  10.7140636
  42.9081635   2.2822131  18.2617461  42.2780295   2.9638412  18.4952858
  42.8017723   2.1705213  17.3170599  52.2190417   9.2899166  11.9388666
  53.0407861   8.8879354  11.6571348  52.2152820   9.1867401  12.8904782
  45.9847020   8.8383210  14.0949377  46.0491453   9.3003617  14.9307549
  45.2757944   8.2080575  14.2231687  45.6995038  10.5051317   3.9628357
  45.5640713  11.3502853   4.3913205  46.2404850  10.7070595   3.1994291
  40.9619320  11.1392512   6.6179035  41.1385948  12.0610476   6.4300019
  41.7576153  10.8250931   7.0473415  40.2471677   3.1857143  16.4941199
  40.1325192   2.2842401  16.7948297  39.3916194   3.4320840  16.1426015
  47.3263514  11.1274884  18.0928699  46.8827368  10.3411262  17.7749604
  47.9880728  11.3154034  17.4272590  42.0850635  12.6570685  12.6189378
  42.6358061  12.5287749  11.8466372  41.2462111  12.9565574  12.2684270
  49.4244752  11.4077684  16.1210100  49.4063228  12.2286565  15.6290370
  50.3464672  11.2831759  16.3460242  45.8817806   8.9221813  16.9633609
  46.4146143   8.1610101  16.7332917  45.3531888   8.6295465  17.7057763
  52.2263365   6.2456826   9.5919467  51.5687040   6.9356087   9.6799596
  53.0303764   6.6353258   9.9353453  50.2463559  11.4183697   6.7052370
  50.5386534  11.9788754   5.9864735  50.7562180  11.7112258   7.4605529
  45.1196247   3.5829231   8.1021179  45.1744857   2.6303068   8.0263656
  44.3087449   3.7388670   8.5862478  45.2097185  12.1964048   7.7945823
  45.1673363  12.4224894   6.8654355  46.1259884  11.9627423   7.9431624
  43.3262985   9.0727077   7.5907786  44.1203584   8.5777397   7.3890361
  42.6154678   8.5444940   7.2275491  48.1457830  11.4545173  11.9420153
  48.1994852  12.0236109  12.7097869  47.2772611  11.6247058  11.5774190
  41.0256223   1.1562729  13.4244604  41.6979277   0.9480091  12.7757253
  40.1986010   0.9584815  12.9849837  55.2745485   7.8966779  12.9419938
  55.4681375   8.8012590  13.1879213  55.1746103   7.4374198  13.7758523
  50.3360593   8.0473522  18.5160819  50.1846100   7.8184074  17.5990902
  50.3265273   9.0044123  18.5292164  47.1045930   5.6205435  13.5007085
  48.0337990   5.7716594  13.3276052  46.6836960   5.7089455  12.6455732
  45.9034261   9.6456099  11.2705623  45.7645347   9.2774883  12.1431561
  45.1148858  10.1603738  11.0989580  46.4982413  14.7465195   2.6131159
  46.6734169  14.2753239   3.4276782  45.8115201  15.3730962   2.8412420
  47.4539477   9.0237702   8.6594460  47.1189309   8.9838472   9.5552110
  46.9543422   8.3582418   8.1864871  41.4283721   4.4305332  14.1847042
  41.2903518   3.6985571  14.7858581  42.3388644   4.3414232  13.9031229
  44.0566021   4.1425291  13.6730721  44.7665640   3.5018483  13.6317340
  44.0135329   4.3938186  14.5956902  52.0452800  11.0792644  16.5937300
  51.9865346  10.3951865  15.9267883  52.4472318  11.8211634  16.1417926
  42.7694955   1.1290509  15.4926361  42.2332312   0.6781247  16.1447957
  42.1811664   1.2636418  14.7496825  41.0643499  17.8954558   9.3871019
  41.3040097  18.5273082  10.0650038  40.2212695  17.5442598   9.6736379
  52.0470207   9.0432228  14.8251280  51.1596986   8.7058150  14.9477679
  52.6168758   8.3115260  15.0620046  45.5771361  13.7033681  11.7912523
  45.5041532  14.5088652  12.3031828  45.1348754  13.9025647  10.9660545
  45.3661140  12.9405451   5.3015345  44.5828662  13.4827131   5.3953569
  46.0653885  13.4579430   5.7009586  48.0370044  13.6020515  13.9470682
  48.7498016  14.2367980  13.8746583  47.5460073  13.6984381  13.1310684
  43.0881958  11.3514958  14.7676253  43.7891417  11.9851441  14.9205647
  42.6177073  11.6929690  14.0071892  47.8490417  13.9419259   6.6956973
  48.0312812  13.1240915   7.1584726  48.6723403  14.1586951   6.2581863
  48.1832583  12.8687444   3.9572022  48.7120349  12.3579899   3.3442184
  48.4460803  12.5529974   4.8217555  46.9370817   4.6479377  19.0794840
  46.2611454   4.5473506  19.7497215  47.7598450   4.4918590  19.5430837
  38.6849676  10.8851313  11.7007355  39.2703112  10.1395001  11.8335260
  38.4874514  11.1955270  12.5844019  41.5388331  13.9202561   6.7169798
  40.8698706  14.4048688   6.2333838  41.4001201  14.1671781   7.6313176
  45.6793599  15.9546304  13.3152456  46.2311907  16.1177926  14.0801541
  46.0199793  16.5450742  12.6432481  50.5304474  10.7807562  19.1701111
  51.0744378  11.3937520  18.6756065  49.9491319  11.3387140  19.6868124
  48.8161987  13.9028280  10.3016138  48.6913126  13.1018020   9.7927084
  49.4741078  14.3974473   9.8130108  50.8796895  11.7037300  11.9295688
  49.9327231  11.5842651  11.8574015  51.2279668  10.8159798  12.0121950
  47.8843328  11.4990016   8.1300041  47.7368291  10.5706723   8.3107611
  48.7096822  11.5210107   7.6457116  51.4877450  12.3218575   9.2164913
  52.4123998  12.1161436   9.0789365  51.3192754  12.0734976  10.1254255
  42.6204064   2.3113567   9.7002903  42.4748645   2.6253870  10.5927184
  42.1429268   2.9298467   9.1473801  37.0949726   4.8518911  12.6390564
  36.5503194   5.6278719  12.7710838  37.9729076   5.1989716  12.4809685
  37.8815748   3.9788807  15.5320721  37.1397484   4.1271443  16.1185351
  37.5608492   4.2397073  14.6687470  45.8259411  13.5204786  15.3301111
  46.1346537  13.2753932  16.2023810  46.6234893  13.7251424  14.8419981
  45.8480023  15.6742695   7.5606487  45.4085013  15.1819074   8.2539344
  46.5988140  15.1315663   7.3198562  38.3272362  11.8654236   7.5631115
  39.1530382  11.5658008   7.1829759  37.9766414  11.0961859   8.0120904
  43.2953895  11.2180704   9.6328789  42.6733904  10.5551409   9.3331017
  43.9658762  11.2441836   8.9502437  36.5280967   9.7840563   8.5220049
  35.6912875   9.3562737   8.3404050  36.5004612   9.9773006   9.4590840
  53.8533268  10.2403616  18.5062432  53.0628812  10.2227755  17.9666931
  53.6166623  10.7791909  19.2611469  53.9731143   7.0896082  15.8195160
  54.0229148   6.9246090  16.7610683  53.8645067   6.2223341  15.4293041
  55.4749340   9.5093024  16.0637182  55.1834148   9.8723004  16.9000643
  54.8621471   8.7960032  15.8850514  46.6248298   7.6511317  19.3815706
  47.5451308   7.8289916  19.5755753  46.5897881   6.7067362  19.2295406
  39.6210371   5.5612352  12.0238487  39.8396381   6.4929460  12.0426521
  40.0336145   5.2020326  12.8093291  44.3569506   4.5642696  20.2306298
  43.8736588   5.3643056  20.4370187  44.4430445   4.5750641  19.2773742
  40.2842844   8.4547231  12.2674732  41.2386097   8.4231173  12.2004663
  40.0855367   7.9937855  13.0824958  40.8742226   7.0248347  14.8345529
  41.6935115   7.5192426  14.8580367  41.1479034   6.1080315  14.8063097
  38.6393073  13.9966851   9.2844930  38.5047541  13.2367251   8.7182928
  38.2225135  14.7207750   8.8173719  41.7962199  14.8936168   9.4963372
  41.6794583  15.8381600   9.3942063  40.9754645  14.5909729   9.8849172
  36.1277140   1.3586481  15.5337727  36.7736004   0.8485435  16.0224952
  35.9194291   2.0955163  16.1081152  48.6530532   8.4267328  21.0329867
  49.5221692   8.6007981  20.6716502  48.1737284   9.2461745  20.9105596
  42.8216713  15.5464429  12.7119301  43.7243959  15.5788040  13.0285796
  42.5954083  14.6164880  12.7265637  44.5770315  14.2995416   9.3729379
  43.6265946  14.2997278   9.2593752  44.8802801  13.5528151   8.8565414
  60.3123008  20.1355954  10.4375142  60.9501418  20.0162702   9.7338482
  60.1943851  21.0836798  10.4963094  57.1212714  20.0883383  10.3736666
  56.7831226  19.9724447   9.4857201  57.9902483  19.6874548  10.3537673
  52.9799530  21.9418859   6.3633557  52.4164395  21.8508796   5.5949845
  52.8651925  21.1218763   6.8436050  57.6032497  21.2418234  16.3322872
  57.5921138  20.8471033  15.4603376  57.7653137  20.5084307  16.9256643
  50.5263962  23.4370051   9.2017778  51.3185254  23.0960875   8.7864077
  50.7660612  23.5465026  10.1219931  52.4854716  22.6978964   2.0735157
  53.2585592  22.1507951   1.9348032  52.8380115  23.5623213   2.2849618
  54.3239759  24.0255346  15.2802056  54.0329625  24.9300977  15.1648722
  54.9596743  24.0671874  15.9946126  55.2495965  21.4032195  11.8703416
  55.8459538  21.1788217  11.1560379  55.3070937  20.6616940  12.4728863
  56.8848823  20.2209883   5.6124671  56.5207031  19.6940504   6.3237592
  57.7415939  19.8308352   5.4391156  59.2829644  23.7116762  12.2751850
  58.9830367  24.6141800  12.1667657  58.9380703  23.4448945  13.1273003
  52.7342125  20.1630558   8.3088554  51.8092622  20.0306773   8.5166246
  52.9826538  20.9424778   8.8058496  50.0950936  19.8063832   9.1432343
  50.2243317  20.0598311  10.0571755  49.4148387  20.3991540   8.8236998
  54.2650423  30.4761082   5.2422817  54.1874453  31.4268907   5.3211298
  53.6612067  30.1306954   5.8997744  56.7567653  17.6488947  17.8984184
  55.9800987  18.2082867  17.8887049  57.3958216  18.1345730  18.4199054
  55.0114026  20.4574401  17.4602151  55.7528710  20.9959445  17.1836975
  54.3051011  21.0840689  17.6173703  60.4869365  22.6003541  16.0574313
  60.8952721  22.1585952  15.3128945  59.7646627  22.0256169  16.3108506
  56.8400435  17.5376148  13.4307870  57.6861630  17.9615561  13.5742519
  56.7799073  16.8809772  14.1246433  60.8098180  23.1604732   9.8126602
  60.1807042  23.3250446   9.1102669  60.4223842  23.5746341  10.5837566
  59.9899881  15.1980516  15.0889043  59.7460812  15.9522577  14.5523319
  60.2659811  15.5765864  15.9236290  61.9438343  21.7419129  13.7666309
  62.1555239  22.3850889  13.0900690  61.8968092  20.9081445  13.2988239
  56.3626142  22.8979140   7.0776687  56.8264487  23.1766843   6.2881309
  56.0982940  21.9962584   6.8949777  53.2550223  22.4450621  10.0156450
  53.8251580  22.8737890   9.3773934  53.8458335  22.1633206  10.7140636
  55.2995028  19.0202292   3.8866252  56.0019071  19.4723336   4.3540178
  54.9675656  18.3786111   4.5146145  53.7475389  17.6114049  18.2617461
  53.1174050  18.2930330  18.4952858  53.6411477  17.4997130  17.3170599
  49.0420362  17.2785845   9.1883385  48.2519416  17.5343373   8.7123496
  49.5331609  18.0934183   9.2935426  63.0584171  24.6191084  11.9388666
  63.8801615  24.2171271  11.6571348  63.0546574  24.5159318  12.8904782
  50.9935107  17.6430424   6.1466862  50.1966270  17.7549118   6.6650358
  50.7660699  17.9817076   5.2807753  56.8240775  24.1675127  14.0949377
  56.8885207  24.6295535  14.9307549  56.1151699  23.5372492  14.2231687
  47.3258065  17.5316335  11.6198376  47.5766103  18.4163345  11.8855952
  47.8617613  17.3520937  10.8473468  56.5388792  25.8343235   3.9628357
  56.4034467  26.6794771   4.3913205  57.0798605  26.0362513   3.1994291
  53.0256132  11.9134815  20.6242712  52.6323078  11.3601013  21.2990357
  53.8422272  12.2245393  21.0149230  49.9918190  23.3518673   4.5356282
  50.5042710  24.1461923   4.6861847  50.6440903  22.6544963   4.4689884
  51.8013074  26.4684429   6.6179035  51.9779703  27.3902394   6.4300019
  52.5969908  26.1542848   7.0473415  55.9424093  13.3292694  18.2162969
  56.6833806  13.9299847  18.1367431  56.1742016  12.5870332  17.6581011
  51.0865431  18.5149061  16.4941199  50.9718946  17.6134318  16.7948297
  50.2309949  18.7612758  16.1426015  58.1657269  26.4566801  18.0928699
  57.7221123  25.6703180  17.7749604  58.8274482  26.6445952  17.4272590
  52.9244390  27.9862603  12.6189378  53.4751815  27.8579666  11.8466372
  52.0855866  28.2857492  12.2684270  60.2638507  26.7369601  16.1210100
  60.2456982  27.5578482  15.6290370  61.1858427  26.6123677  16.3460242
  56.7211561  24.2513731  16.9633609  57.2539898  23.4902019  16.7332917
  56.1925642  23.9587383  17.7057763  47.9567107  21.6807327   5.3115853
  48.7942329  22.0904336   5.0949560  48.1345374  20.7406769   5.2816047
  55.2120682  11.8117182   9.4642666  56.0773679  11.6159990   9.1048555
  55.2798191  11.5827533  10.3912022  58.0864274  23.3799723   4.4752421
  57.5585635  22.6452483   4.1625658  57.5851776  24.1574400   4.2292389
  63.0657120  21.5748744   9.5919467  62.4080794  22.2648005   9.6799596
  63.8697519  21.9645176   9.9353453  52.8183001  14.0419390   6.8359032
  53.3926753  13.8194571   6.1032225  53.4053984  14.1108084   7.5887634
  58.3543409  17.4042572   9.8881749  57.4365971  17.6257519   9.7303437
  58.7703553  17.4788882   9.0293457  61.0857314  26.7475615   6.7052370
  61.3780288  27.3080672   5.9864735  61.5955935  27.0404176   7.4605529
  47.9793278  19.0198043   5.9826586  47.7817677  18.4267403   5.2577653
  47.4239942  18.7150253   6.7002525  55.9590001  18.9121149   8.1021179
  56.0138611  17.9594985   8.0263656  55.1481203  19.0680588   8.5862478
  53.8982361  17.5298209   5.8611558  53.0850227  17.8292379   6.2676750
  54.3941355  17.1353898   6.5786040  56.0490939  27.5255966   7.7945823
  56.0067118  27.7516812   6.8654355  56.9653638  27.2919340   7.9431624
  59.4956573  17.9940033  14.6926452  59.8505961  18.2211506  15.5520918
  60.1428704  18.3258410  14.0703707  53.3896436  15.1016564  11.4772793
  54.0295815  14.9605323  10.7795756  52.5573967  14.8151078  11.1011395
  54.1656740  24.4018995   7.5907786  54.9597338  23.9069315   7.3890361
  53.4548432  23.8736858   7.2275491  58.9851584  26.7837090  11.9420153
  59.0388607  27.3528027  12.7097869  58.1166366  26.9538975  11.5774190
  50.4739503  18.5462076   3.6667538  49.5437091  18.4846532   3.8837500
  50.5696975  18.0238029   2.8704179  50.3925052  15.0716889   6.2545780
  50.6531870  15.9862223   6.1454940  51.2142225  14.6041332   6.4042393
  51.8649978  16.4854646  13.4244604  52.5373031  16.2772009  12.7757253
  51.0379764  16.2876732  12.9849837  66.1139239  23.2258697  12.9419938
  66.3075129  24.1304507  13.1879213  66.0139857  22.7666116  13.7758523
  57.7675550  13.1116587  15.4410265  57.1203465  13.8106537  15.3474742
  58.5376565  13.5452731  15.8086514  61.1754348  23.3765440  18.5160819
  61.0239854  23.1475991  17.5990902  61.1659027  24.3336041  18.5292164
  57.9439684  20.9497352  13.5007085  58.8731744  21.1008512  13.3276052
  57.5230714  21.0381373  12.6455732  56.7428016  24.9748017  11.2705623
  56.6039102  24.6066801  12.1431561  55.9542612  25.4895656  11.0989580
  57.3376168  30.0757113   2.6131159  57.5127924  29.6045156   3.4276782
  56.6508956  30.7022879   2.8412420  58.2933231  24.3529619   8.6594460
  57.9583064  24.3130389   9.5552110  57.7937177  23.6874335   8.1864871
  52.2677475  19.7597249  14.1847042  52.1297273  19.0277488  14.7858581
  53.1782398  19.6706150  13.9031229  54.8959776  19.4717209  13.6730721
  55.6059394  18.8310401  13.6317340  54.8529084  19.7230104  14.5956902
  62.8846554  26.4084562  16.5937300  62.8259101  25.7243782  15.9267883
  63.2866073  27.1503552  16.1417926  53.6088710  16.4582427  15.4926361
  53.0726067  16.0073165  16.1447957  53.0205418  16.5928335  14.7496825
  51.9037253  33.2246476   9.3871019  52.1433851  33.8565000  10.0650038
  51.0606450  32.8734516   9.6736379  62.8863962  24.3724146  14.8251280
  61.9990740  24.0350068  14.9477679  63.4562513  23.6407177  15.0620046
  44.5393109  20.7048238   8.1494332  45.2264149  20.3909968   7.5615347
  44.3841237  21.6089602   7.8761583  49.3427831  15.5938434  12.5779355
  49.2586020  14.9864104  11.8429765  48.5210537  16.0847453  12.5788852
  56.4165115  29.0325598  11.7912523  56.3435287  29.8380570  12.3031828
  55.9742508  29.2317564  10.9660545  56.2054895  28.2697368   5.3015345
  55.4222417  28.8119049   5.3953569  56.9047640  28.7871348   5.7009586
  58.8763799  28.9312432  13.9470682  59.5891771  29.5659897  13.8746583
  58.3853827  29.0276298  13.1310684  56.0986514  16.2209381   7.6721235
  55.7284301  15.6680421   8.3602140  56.5945606  15.6167514   7.1196235
  53.9275712  26.6806876  14.7676253  54.6285172  27.3143359  14.9205647
  53.4570827  27.0221607  14.0071892  61.7276998  19.2351483  12.5928803
  61.0748448  19.4827391  11.9381256  62.1057378  18.4215621  12.2591280
  58.6884172  29.2711176   6.6956973  58.8706566  28.4532832   7.1584726
  59.5117158  29.4878869   6.2581863  59.0226337  28.1979362   3.9572022
  59.5514104  27.6871816   3.3442184  59.2854557  27.8821892   4.8217555
  57.7764571  19.9771294  19.0794840  57.1005208  19.8765424  19.7497215
  58.5992205  19.8210508  19.5430837  49.5243430  26.2143231  11.7007355
  50.1096867  25.4686919  11.8335260  49.3268269  26.5247188  12.5844019
  52.3782085  29.2494478   6.7169798  51.7092461  29.7340606   6.2333838
  52.2394955  29.4963699   7.6313176  44.1161085  18.7848831  10.4211799
  44.1545184  18.2512422  11.2148917  43.6101378  18.2584037   9.8022776
  56.5187354  31.2838222  13.3152456  57.0705662  31.4469843  14.0801541
  56.8593547  31.8742660  12.6432481  51.4951847  13.6313372  13.9174341
  51.5593174  14.4928203  13.5051739  51.4318967  13.0187373  13.1846699
  50.9704120  15.7036504  17.5647375  51.5976159  15.3213581  18.1784900
  50.1132039  15.4850706  17.9303068  61.3698228  26.1099479  19.1701111
  61.9138132  26.7229438  18.6756065  60.7885073  26.6679058  19.6868124
  47.7469662  17.5112933   3.4965730  48.0423104  16.6023612   3.4432784
  46.8457698  17.4900673   3.1746732  59.6555741  29.2320197  10.3016138
  59.5306881  28.4309937   9.7927084  60.3134832  29.7266391   9.8130108
  51.2763909  15.5868930   9.4793279  50.5550495  16.2004898   9.3400752
  52.0657165  16.1226695   9.4009925  61.7190650  27.0329217  11.9295688
  60.7720985  26.9134569  11.8574015  62.0673423  26.1451715  12.0121950
  54.0790223  12.9223356  15.7533930  54.6024625  13.1685653  16.5160240
  53.8602556  13.7543391  15.3337068  49.4757504  15.1927031   3.6205055
  49.1470210  14.3124410   3.4380161  49.8296875  15.1374700   4.5081444
  58.7237083  26.8281934   8.1300041  58.5762045  25.8998641   8.3107611
  59.5490576  26.8502024   7.6457116  62.3271205  27.6510492   9.2164913
  63.2517752  27.4453354   9.0789365  62.1586508  27.4026894  10.1254255
  55.2842768  13.8637051  13.4383601  54.9439588  13.0644865  13.8404281
  54.5781774  14.1638762  12.8660434  55.9359240  10.9486364  11.8910924
  56.7585309  10.4746842  11.7689814  56.1797303  11.7276848  12.3909610
  53.4597819  17.6405485   9.7002903  53.3142399  17.9545788  10.5927184
  52.9823022  18.2590385   9.1473801  55.3194201  14.6308033   9.7483792
  55.3055770  13.7349126   9.4116090  56.0366630  14.6378696  10.3822078
  57.1720332  15.0645373  11.7936920  56.9138110  15.9862443  11.7921250
  56.6405373  14.6675807  12.4837384  47.9343481  20.1810829  12.6390564
  47.3896949  20.9570637  12.7710838  48.8122831  20.5281633  12.4809685
  48.7209503  19.3080725  15.5320721  47.9791239  19.4563361  16.1185351
  48.4002247  19.5688991  14.6687470  56.6653165  28.8496703  15.3301111
  56.9740292  28.6045850  16.2023810  57.4628647  29.0543342  14.8419981
  56.6873777  31.0034613   7.5606487  56.2478768  30.5110992   8.2539344
  57.4381894  30.4607581   7.3198562  49.1666116  27.1946154   7.5631115
  49.9924136  26.8949926   7.1829759  48.8160168  26.4253776   8.0120904
  54.1347649  26.5472622   9.6328789  53.5127659  25.8843327   9.3331017
  54.8052516  26.5733754   8.9502437  47.3674721  25.1132480   8.5220049
  46.5306630  24.6854655   8.3404050  47.3398367  25.3064924   9.4590840
  54.2072177  15.0254410  19.2261295  54.2560332  15.9016533  18.8439064
  54.7494691  14.4831803  18.6532938  64.6927023  25.5695533  18.5062432
  63.9022566  25.5519672  17.9666931  64.4560377  26.1083827  19.2611469
  64.8124898  22.4188000  15.8195160  64.8622903  22.2538007  16.7610683
  64.7038821  21.5515259  15.4293041  53.6961156  25.0976545   3.1087249
  53.8449277  25.7812010   2.4553922  54.5027600  25.0781636   3.6236705
  62.1028660  18.4018928  17.1354467  63.0038523  18.2625393  16.8438465
  62.1776635  18.5673383  18.0752645  56.4371465  15.7785783  15.9807653
  55.5674775  16.0719349  15.7090242  56.6730946  16.3626228  16.7014917
  66.3143095  24.8384941  16.0637182  66.0227903  25.2014922  16.9000643
  65.7015226  24.1251950  15.8850514  64.5630283  19.9617556  14.5317240
  65.0384404  20.1545202  13.7236091  63.6395848  20.0176742  14.2860624
  51.4513789  21.1241723   4.1148318  51.2059831  20.2204053   4.3128528
  51.6209704  21.1258874   3.1727796  59.1410499  11.9965399  13.4973074
  59.6592443  12.7326426  13.1719562  58.7865632  12.3029393  14.3319833
  50.7209437  16.8570081   1.6134480  50.0278682  16.9314436   0.9574516
  50.4761189  16.0930424   2.1355997  57.1956562  27.5924676   0.5798997
  56.6230529  28.2114863   0.1269469  57.7689356  28.1424038   1.1138919
  63.2631952  16.8383316  12.7645546  64.2149375  16.9381414  12.7857770
  63.0935402  16.0461585  13.2743630  61.2846331  13.9238899  12.9504947
  60.6896263  14.2043912  12.2551435  60.9996028  14.4132800  13.7221688
  57.4642053  22.9803235  19.3815706  58.3845062  23.1581834  19.5755753
  57.4291636  22.0359280  19.2295406  46.6824218  18.1741828   8.3068981
  46.3627002  17.3207137   8.0143355  46.1357646  18.3890407   9.0626948
  50.4604125  20.8904269  12.0238487  50.6790135  21.8221377  12.0426521
  50.8729899  20.5312244  12.8093291  55.3331991  16.4637475  21.4141236
  55.2328718  17.4131832  21.3453327  55.1153533  16.1355714  20.5417306
  46.5512478  21.7944740  10.2762102  45.8575949  21.3798693   9.7632057
  47.2985469  21.8365276   9.6795521  55.1963261  19.8934614  20.2306298
  54.7130343  20.6934974  20.4370187  55.2824200  19.9042559  19.2773742
  48.4649220  21.7262994   8.1528117  48.4419909  21.8250681   7.2010000
  48.7749857  22.5728145   8.4745283  51.1236598  23.7839149  12.2674732
  52.0779852  23.7523091  12.2004663  50.9249122  23.3229772  13.0824958
  51.7135980  22.3540265  14.8345529  52.5328869  22.8484343  14.8580367
  51.9872788  21.4372233  14.8063097  49.4786827  29.3258768   9.2844930
  49.3441295  28.5659169   8.7182928  49.0618889  30.0499668   8.8173719
  52.6355953  30.2228085   9.4963372  52.5188337  31.1673518   9.3942063
  51.8148399  29.9201647   9.8849172  46.9670895  16.6878399  15.5337727
  47.6129758  16.1777353  16.0224952  46.7588046  17.4247080  16.1081152
  59.4924287  23.7559246  21.0329867  60.3615447  23.9299898  20.6716502
  59.0131038  24.5753663  20.9105596  53.6610467  30.8756347  12.7119301
  54.5637714  30.9079957  13.0285796  53.4347837  29.9456798  12.7265637
  55.4164069  29.6287334   9.3729379  54.4659700  29.6289195   9.2593752
  55.7196555  28.8820068   8.8565414  51.3068386  13.8346016  19.6312741
  52.1699847  13.4782821  19.8416065  50.7333796  13.4959911  20.3188145
  67.9606469  35.4175300  10.3736666  67.6224980  35.3016365   9.4857201
  68.8296237  35.0166465  10.3537673  63.8193285  37.2710777   6.3633557
  63.2558150  37.1800714   5.5949845  63.7045680  36.4510681   6.8436050
  68.4426252  36.5710152  16.3322872  68.4314893  36.1762950  15.4603376
  68.6046891  35.8376225  16.9256643  61.3657717  38.7661968   9.2017778
  62.1579008  38.4252793   8.7864077  61.6054367  38.8756943  10.1219931
  65.1633513  39.3547264  15.2802056  64.8723379  40.2592895  15.1648722
  65.7990497  39.3963791  15.9946126  66.0889720  36.7324112  11.8703416
  66.6853292  36.5080135  11.1560379  66.1464691  35.9908858  12.4728863
  70.1223398  39.0408679  12.2751850  69.8224121  39.9433718  12.1667657
  69.7774458  38.7740862  13.1273003  63.5735880  35.4922476   8.3088554
  62.6486376  35.3598690   8.5166246  63.8220293  36.2716695   8.8058496
  60.9344691  35.1355750   9.1432343  61.0637072  35.3890229  10.0571755
  60.2542142  35.7283458   8.8236998  67.5961408  32.9780865  17.8984184
  66.8194742  33.5374785  17.8887049  68.2351971  33.4637648  18.4199054
  65.8507780  35.7866318  17.4602151  66.5922464  36.3251362  17.1836975
  65.1444765  36.4132607  17.6173703  67.6794190  32.8668066  13.4307870
  68.5255385  33.2907479  13.5742519  67.6192827  32.2101690  14.1246433
  64.0943977  37.7742539  10.0156450  64.6645334  38.2029807   9.3773934
  64.6852089  37.4925124  10.7140636  64.5869144  32.9405967  18.2617461
  63.9567804  33.6222247  18.4952858  64.4805232  32.8289048  17.3170599
  59.8814116  32.6077763   9.1883385  59.0913170  32.8635291   8.7123496
  60.3725364  33.4226100   9.2935426  61.8328862  32.9722342   6.1466862
  61.0360025  33.0841036   6.6650358  61.6054454  33.3108994   5.2807753
  67.6634529  39.4967045  14.0949377  67.7278962  39.9587452  14.9307549
  66.9545453  38.8664410  14.2231687  58.1651819  32.8608253  11.6198376
  58.4159858  33.7455263  11.8855952  58.7011368  32.6812855  10.8473468
  63.8649886  27.2426732  20.6242712  63.4716832  26.6892931  21.2990357
  64.6816027  27.5537311  21.0149230  66.7817847  28.6584611  18.2162969
  67.5227561  29.2591765  18.1367431  67.0135770  27.9162249  17.6581011
  61.9259185  33.8440979  16.4941199  61.8112701  32.9426236  16.7948297
  61.0703703  34.0904676  16.1426015  69.0051023  41.7858719  18.0928699
  68.5614877  40.9995098  17.7749604  69.6668237  41.9737870  17.4272590
  63.7638144  43.3154521  12.6189378  64.3145570  43.1871584  11.8466372
  62.9249620  43.6149410  12.2684270  67.5605315  39.5805648  16.9633609
  68.0933652  38.8193937  16.7332917  67.0319397  39.2879300  17.7057763
  58.7960861  37.0099245   5.3115853  59.6336083  37.4196253   5.0949560
  58.9739129  36.0698687   5.2816047  66.0514437  27.1409099   9.4642666
  66.9167433  26.9451908   9.1048555  66.1191946  26.9119451  10.3912022
  63.6576756  29.3711307   6.8359032  64.2320508  29.1486489   6.1032225
  64.2447738  29.4400002   7.5887634  69.1937164  32.7334490   9.8881749
  68.2759725  32.9549437   9.7303437  69.6097307  32.8080800   9.0293457
  58.8187032  34.3489960   5.9826586  58.6211432  33.7559321   5.2577653
  58.2633696  34.0442170   6.7002525  66.7983756  34.2413067   8.1021179
  66.8532366  33.2886903   8.0263656  65.9874958  34.3972506   8.5862478
  64.7376116  32.8590126   5.8611558  63.9243981  33.1584297   6.2676750
  65.2335110  32.4645815   6.5786040  64.2290191  30.4308482  11.4772793
  64.8689570  30.2897241  10.7795756  63.3967721  30.1442995  11.1011395
  65.0050494  39.7310912   7.5907786  65.7991093  39.2361233   7.3890361
  64.2942187  39.2028776   7.2275491  69.8245339  42.1129008  11.9420153
  69.8782361  42.6819944  12.7097869  68.9560120  42.2830893  11.5774190
  61.3133258  33.8753994   3.6667538  60.3830846  33.8138450   3.8837500
  61.4090730  33.3529947   2.8704179  61.2318807  30.4008807   6.2545780
  61.4925624  31.3154140   6.1454940  62.0535979  29.9333250   6.4042393
  62.7043732  31.8146564  13.4244604  63.3766786  31.6063926  12.7757253
  61.8773519  31.6168650  12.9849837  68.6069304  28.4408505  15.4410265
  67.9597219  29.1398455  15.3474742  69.3770320  28.8744649  15.8086514
  68.7833439  36.2789270  13.5007085  69.7125499  36.4300430  13.3276052
  68.3624469  36.3673291  12.6455732  67.5821770  40.3039934  11.2705623
  67.4432856  39.9358719  12.1431561  66.7936367  40.8187574  11.0989580
  69.1326986  39.6821537   8.6594460  68.7976818  39.6422307   9.5552110
  68.6330931  39.0166253   8.1864871  63.1071230  35.0889167  14.1847042
  62.9691027  34.3569406  14.7858581  64.0176153  34.9998067  13.9031229
  65.7353530  34.8009126  13.6730721  66.4453149  34.1602319  13.6317340
  65.6922838  35.0522021  14.5956902  64.4482464  31.7874344  15.4926361
  63.9119821  31.3365083  16.1447957  63.8599173  31.9220253  14.7496825
  55.3786863  36.0340155   8.1494332  56.0657903  35.7201885   7.5615347
  55.2234992  36.9381520   7.8761583  60.1821585  30.9230352  12.5779355
  60.0979774  30.3156022  11.8429765  59.3604292  31.4139370  12.5788852
  67.2558870  44.3617516  11.7912523  67.1829041  45.1672488  12.3031828
  66.8136263  44.5609482  10.9660545  69.7157553  44.2604350  13.9470682
  70.4285525  44.8951815  13.8746583  69.2247582  44.3568216  13.1310684
  66.9380268  31.5501299   7.6721235  66.5678056  30.9972339   8.3602140
  67.4339360  30.9459432   7.1196235  64.7669467  42.0098794  14.7676253
  65.4678926  42.6435276  14.9205647  64.2964582  42.3513525  14.0071892
  68.6158326  35.3063212  19.0794840  67.9398963  35.2057341  19.7497215
  69.4385959  35.1502426  19.5430837  60.3637185  41.5435149  11.7007355
  60.9490621  40.7978836  11.8335260  60.1662023  41.8539105  12.5844019
  54.9554839  34.1140749  10.4211799  54.9938939  33.5804339  11.2148917
  54.4495132  33.5875954   9.8022776  67.3581108  46.6130139  13.3152456
  67.9099416  46.7761761  14.0801541  67.6987302  47.2034577  12.6432481
  62.3345602  28.9605289  13.9174341  62.3986928  29.8220120  13.5051739
  62.2712722  28.3479291  13.1846699  61.8097874  31.0328422  17.5647375
  62.4369913  30.6505499  18.1784900  60.9525793  30.8142624  17.9303068
  58.5863417  32.8404851   3.4965730  58.8816858  31.9315529   3.4432784
  57.6851453  32.8192590   3.1746732  62.1157664  30.9160848   9.4793279
  61.3944250  31.5296815   9.3400752  62.9050920  31.4518612   9.4009925
  64.9183977  28.2515274  15.7533930  65.4418379  28.4977571  16.5160240
  64.6996311  29.0835309  15.3337068  60.3151259  30.5218949   3.6205055
  59.9863965  29.6416328   3.4380161  60.6690629  30.4666617   4.5081444
  66.1236523  29.1928969  13.4383601  65.7833343  28.3936782  13.8404281
  65.4175529  29.4930680  12.8660434  66.7752994  26.2778282  11.8910924
  67.5979064  25.8038760  11.7689814  67.0191058  27.0568765  12.3909610
  64.2991573  32.9697402   9.7002903  64.1536154  33.2837705  10.5927184
  63.8216777  33.5882303   9.1473801  66.1587956  29.9599950   9.7483792
  66.1449525  29.0641043   9.4116090  66.8760384  29.9670614  10.3822078
  68.0114087  30.3937290  11.7936920  67.7531865  31.3154361  11.7921250
  67.4799127  29.9967725  12.4837384  58.7737235  35.5102747  12.6390564
  58.2290703  36.2862555  12.7710838  59.6516585  35.8573551  12.4809685
  59.5603257  34.6372643  15.5320721  58.8184993  34.7855278  16.1185351
  59.2396001  34.8980908  14.6687470  67.5046920  44.1788621  15.3301111
  67.8134046  43.9337768  16.2023810  68.3022402  44.3835260  14.8419981
  60.0059871  42.5238072   7.5631115  60.8317891  42.2241843   7.1829759
  59.6553923  41.7545694   8.0120904  64.9741404  41.8764540   9.6328789
  64.3521413  41.2135245   9.3331017  65.6446271  41.9025672   8.9502437
  58.2068476  40.4424398   8.5220049  57.3700384  40.0146572   8.3404050
  58.1792121  40.6356841   9.4590840  65.0465931  30.3546328  19.2261295
  65.0954087  31.2308451  18.8439064  65.5888446  29.8123721  18.6532938
  67.2765220  31.1077700  15.9807653  66.4068529  31.4011266  15.7090242
  67.5124700  31.6918145  16.7014917  69.9804254  27.3257317  13.4973074
  70.4986198  28.0618344  13.1719562  69.6259387  27.6321310  14.3319833
  61.5603191  32.1861998   1.6134480  60.8672436  32.2606353   0.9574516
  61.3154943  31.4222342   2.1355997  68.3035807  38.3095152  19.3815706
  69.2238817  38.4873751  19.5755753  68.2685390  37.3651198  19.2295406
  57.5217972  33.5033746   8.3068981  57.2020757  32.6499054   8.0143355
  56.9751401  33.7182324   9.0626948  61.2997880  36.2196187  12.0238487
  61.5183890  37.1513295  12.0426521  61.7123654  35.8604162  12.8093291
  66.1725745  31.7929393  21.4141236  66.0722472  32.7423750  21.3453327
  65.9547287  31.4647632  20.5417306  57.3906232  37.1236658  10.2762102
  56.6969704  36.7090610   9.7632057  58.1379223  37.1657194   9.6795521
  66.0357015  35.2226532  20.2306298  65.5524097  36.0226892  20.4370187
  66.1217954  35.2334477  19.2773742  59.3042975  37.0554911   8.1528117
  59.2813663  37.1542599   7.2010000  59.6143611  37.9020062   8.4745283
  61.9630353  39.1131066  12.2674732  62.9173606  39.0815009  12.2004663
  61.7642876  38.6521690  13.0824958  62.5529735  37.6832182  14.8345529
  63.3722624  38.1776261  14.8580367  62.8266543  36.7664151  14.8063097
  60.3180582  44.6550686   9.2844930  60.1835050  43.8951087   8.7182928
  59.9012644  45.3791586   8.8173719  57.8064649  32.0170316  15.5337727
  58.4523513  31.5069270  16.0224952  57.5981800  32.7538998  16.1081152
  64.5004222  46.2048265  12.7119301  65.4031468  46.2371875  13.0285796
  64.2741592  45.2748716  12.7265637  62.1462140  29.1637933  19.6312741
  63.0093602  28.8074738  19.8416065  61.5727551  28.8251828  20.3188145
  68.6458404  47.3462234  15.5337727  69.2917267  46.8361188  16.0224952
  68.4375555  48.0830916  16.1081152   6.1127634  43.9567712  48.1137715
   5.3591342  43.3875110  47.9581719   6.2475175  43.9230376  49.0608349
   1.0776708  46.2196576  52.7684015   1.2712598  47.1242386  53.0143290
   0.9777326  45.7603995  53.6022600   2.3318771  42.7770243  49.4131919
   2.3208648  43.6594958  49.0425852   1.4636151  42.4241793  49.2186456
   2.9343381  43.9270462  46.0181382   3.3774527  43.1777787  45.6200505
   2.0569892  43.9180598  45.6355114   1.2780564  47.8322820  55.8901259
   0.9865372  48.1952801  56.7264720   0.6652695  47.1189829  55.7114591
   2.4776246  45.3975700  48.4103829   3.3123138  45.8365504  48.5741390
   2.6135375  44.9214353  47.5912075   0.7057499  43.0527315  51.7051922
   0.6733819  42.1143316  51.8911606   1.3158122  43.1311352  50.9717747
   6.5234049  44.1143322  50.8457959   7.2537437  43.8528610  51.4065662
   5.9140994  43.3772044  50.8860027   4.6049346  42.2551184  51.4432410
   3.8782509  42.1207149  50.8348902   4.1896633  42.5628013  52.2489128
   2.2227141  38.4763036  48.7965842   2.8171632  38.2358772  48.0859150
   2.2953724  37.7570167  49.4239378   4.5298213  41.7829237  47.5709263
   3.9697771  41.8522427  48.3440825   3.9241717  41.6070222  46.8508759
   6.1154232  58.4585751  50.2639219   6.7532642  58.3392499  49.5602559
   5.9975075  59.4066595  50.3227171   2.9243938  58.4113179  50.2000743
   2.5862450  58.2954244  49.3121278   3.7933706  58.0104344  50.1801750
   5.6695500  56.1837205  47.3392427   6.4558590  55.7656628  46.9882844
   5.9334205  57.0883297  47.5074075   5.8405578  61.6210055  42.0381084
   5.2051411  61.6944682  42.7501988   5.5102984  62.2103654  41.3600163
  11.0703928  56.1212438  48.2425405  11.8029099  55.5511655  48.4763235
  10.3143283  55.7334039  48.6831911   2.6880047  58.5439680  45.4388748
   2.3238254  58.0170301  46.1501669   3.5447163  58.1538149  45.2655233
   8.5929348  49.8334012  52.7020014   8.2612673  50.7029423  52.4781229
   7.9974961  49.5170296  53.3814044   2.3285534  53.5729580  40.4350096
   2.4959937  54.4409816  40.8020567   2.1382703  53.7356861  39.5111386
   8.4858011  54.5529099  49.7813364   7.5774889  54.4844507  49.4872125
   8.4345607  55.0301044  50.6095189   2.3074755  56.0287237  41.4196763
   2.1874380  56.4744288  42.2582243   1.6127344  56.3772555  40.8610301
  10.3519658  52.7545537  51.5591238   9.7094038  53.0478070  50.9131032
   9.8474586  52.6398457  52.3644435   8.0059821  56.5008710  42.2477097
   8.9177677  56.7336097  42.0724795   7.4969468  57.0845754  41.6852176
   2.6431659  55.8605945  53.2571947   3.4892854  56.2845358  53.4006596
   2.5830297  55.2039569  53.9510510   6.6129404  61.4834529  49.6390679
   5.9838266  61.6480243  48.9366746   6.2255066  61.8976138  50.4101643
  10.4918635  62.4188967  46.9935042   9.8069674  62.7987868  46.4432076
  10.5762485  63.0284293  47.7266990   5.7931104  53.5210313  54.9153120
   5.5492036  54.2752374  54.3787396   6.0691035  53.8995661  55.7500367
   7.7469567  60.0648926  53.5930386   7.9586462  60.7080685  52.9164767
   7.6999315  59.2311242  53.1252316   5.3495796  52.6766746  50.4966958
   4.4880275  52.9748000  50.7883696   5.3758231  52.8937145  49.5647991
   1.1026252  57.3432089  43.7130329   1.8050295  57.7953133  44.1804255
   0.7706880  56.7015908  44.3410222   8.8615395  62.9420881  51.7652743
   9.6832839  62.5401068  51.4835425   8.8577798  62.8389115  52.7168859
  16.9521388  59.2859629  48.1137715  16.1985096  58.7167028  47.9581719
  17.0868929  59.2522294  49.0608349   5.6912480  47.6803594  52.3191328
   5.3476749  48.5705235  52.2430438   6.0591442  47.4905251  51.4560913
   5.6562762  57.6712205  40.8263763   5.1409386  58.4416809  41.0652150
   5.3840071  56.9977341  41.4496824   3.2409873  52.5161906  45.8849001
   2.3851470  52.1268756  45.7054640   3.6536825  52.5953866  45.0248787
   4.7709020  50.0508249  50.2840561   4.2673816  50.0138384  49.4708366
   5.0639627  50.9600991  50.3437217   1.0151906  50.1346978  49.2906743
   1.8804903  49.9389787  48.9312632   1.0829415  49.9057330  50.2176099
  10.6297037  60.4244559  42.7616936   9.8526479  60.0855719  42.3172098
  11.3088518  60.4297183  42.0871901   5.4449066  55.5439297  42.6523544
   5.1399201  55.8585446  43.5033687   6.3979508  55.6220717  42.6950877
   8.8688343  59.8978541  49.4183544   8.2112018  60.5877802  49.5063673
   9.6728743  60.2874973  49.7617530   7.6793802  58.2522913  47.4687486
   8.1925684  58.8852905  47.9709196   8.3295026  57.6524109  47.1030846
   2.0348098  59.5209730  37.3051471   1.1275159  59.2898984  37.5042620
   2.5319130  58.7247350  37.4925452   4.1574633  55.7272369  49.7145826
   3.2397195  55.9487316  49.5567514   4.5734777  55.8018679  48.8557534
   4.9409681  57.1263785  44.8448507   5.6881500  57.6385182  44.5355629
   5.2101270  56.8047837  45.7052900   3.2136331  59.6222325  41.8275461
   2.3047550  59.3381358  41.9247931   3.2431415  60.0421404  40.9678768
   7.3888518  54.1620901  46.8267296   6.6511275  53.6498287  47.1577539
   7.6415292  53.7221282  46.0150573   7.4900145  46.9397153  47.4209065
   7.7959022  46.0794516  47.1334980   8.2152750  47.5314773  47.2208059
   1.7621225  57.2350946  47.9285256   1.8169835  56.2824782  47.8527733
   0.9512427  57.3910385  48.4126555   2.9112419  61.1631069  39.1663540
   2.4731849  60.4466928  38.7069177   3.6522860  61.3907184  38.6048631
   5.2987797  56.3169830  54.5190529   5.6537184  56.5441303  55.3784995
   5.9459928  56.6488207  53.8967784  11.0285534  59.4388266  45.2239858
  10.8903432  59.6289862  44.2961047  10.6721752  60.2007649  45.6807909
  11.0554913  61.5064793  50.2351130  11.4891420  61.4140082  51.0834184
  11.7686494  61.4822293  49.5971146  11.9170463  61.5488494  52.7684015
  12.1106353  62.4534304  53.0143290  11.8171081  61.0895913  53.6022600
   3.5706774  51.4346384  55.2674342   2.9234689  52.1336334  55.1738819
   4.3407789  51.8682528  55.6350591   3.7470908  59.2727149  53.3271162
   4.6762968  59.4238309  53.1540129   3.3261938  59.3611170  52.4719809
   7.0323646  60.0215451  38.7595597   6.4152817  59.2962279  38.6628650
   6.5640135  60.7824811  38.4162671   8.6895185  62.6953943  54.6515357
   7.8021964  62.3579865  54.7741756   9.2593736  61.9636974  54.8884123
   5.3182769  52.4021795  47.7713627   5.8151468  51.6491757  47.4514697
   4.5469750  52.4386111  47.2056837  13.1712526  58.1062160  49.4131919
  13.1602402  58.9886876  49.0425852  12.3029905  57.7533711  49.2186456
   6.4012549  61.1593482  45.3452051   5.4668828  61.2794944  45.1756755
   6.5789218  60.2565949  45.0812060   1.9017737  54.5439178  47.4985312
   1.5315525  53.9910218  48.1866217   2.3976830  53.9397311  46.9460312
   9.7885101  57.0010801  45.8802085  10.2545553  57.8338793  45.8062387
  10.2392601  56.5355783  46.5847343   7.7601763  49.3691388  49.9192986
   6.8464843  49.5995615  50.0875193   8.1894865  49.4529832  50.7707018
   7.5308222  57.5581280  52.4192880   6.8779672  57.8057188  51.7645333
   7.9088602  56.7445418  52.0855357   1.7390464  49.2716161  51.7175001
   2.5616533  48.7976639  51.5953891   1.9828527  50.0506644  52.2173687
   4.5229821  53.0049568  42.9496235   4.7393435  53.8874206  42.6485063
   4.0423888  52.6135782  42.2201877   1.1225425  52.9537829  49.5747869
   1.1086994  52.0578923  49.2380167   1.8397853  52.9608493  50.2086155
   2.9751556  53.3875170  51.6200997   2.7169334  54.3092240  51.6185327
   2.4436596  52.9905604  52.3101461   3.3953512  49.5207120  47.9802159
   3.4175208  49.5846453  47.0254139   3.8121571  48.6811629  48.1742665
  13.7737136  59.2562380  46.0181382  14.2168282  58.5069705  45.6200505
  12.8963646  59.2472516  45.6355114  10.8064340  63.2592427  43.0275311
  11.3315664  63.5979699  42.3024631  10.7186693  62.3239442  42.8438446
  10.6156121  60.7417797  55.6459237  10.6654126  60.5767804  56.5874760
  10.5070045  59.8745056  55.2557118   7.9059884  56.7248725  56.9618544
   8.8069747  56.5855190  56.6702542   7.9807858  56.8903179  57.9016722
  12.1174318  63.1614738  55.8901259  11.8259127  63.5244719  56.7264720
  11.5046450  62.4481746  55.7114591  13.3170001  60.7267618  48.4103829
  14.1516892  61.1657422  48.5741390  13.4529129  60.2506271  47.5912075
  10.3661507  58.2847353  54.3581317  10.8415628  58.4774999  53.5500168
   9.4427072  58.3406539  54.1124701   4.9441723  50.3195196  53.3237151
   5.4623667  51.0556223  52.9983639   4.5896856  50.6259190  54.1583910
   5.1954317  46.7395479  48.8438047   5.4756071  46.0718668  49.4698474
   5.9804924  46.9324574  48.3312711   9.0663176  55.1613113  52.5909623
  10.0180598  55.2611211  52.6121847   8.8966626  54.3691381  53.1007707
   7.0877555  52.2468696  52.7769024   6.4927487  52.5273709  52.0815512
   6.8027252  52.7362597  53.5485765  11.5451253  58.3819233  51.7051922
  11.5127573  57.4435233  51.8911606  12.1551877  58.4603269  50.9717747
   3.3834584  57.2515286  37.7479126   4.3293689  57.1221494  37.8167544
   3.0048829  56.5129947  38.2248554  11.6945742  55.1730276  51.7510205
  11.1784790  54.3888733  51.5640134  12.5785690  54.8448993  51.9156725
   9.3556469  48.9171292  47.7106018   9.1581290  48.6086380  48.5949350
   9.9656174  49.6432930  47.8403948  17.3627803  59.4435239  50.8457959
  18.0931192  59.1820528  51.4065662  16.7534749  58.7063961  50.8860027
  15.4443100  57.5843102  51.4432410  14.7176264  57.4499067  50.8348902
  15.0290387  57.8919931  52.2489128   1.5677501  55.1765262  37.6834012
   0.6608957  54.8798375  37.7596725   1.8453482  54.8795080  36.8168298
   3.1839567  49.7202152  43.8378253   2.3740295  49.3749237  44.2133499
   3.8723984  49.4109695  44.4265864   5.1130115  48.7980198  45.4602549
   5.6661154  49.2175652  46.1192573   5.3500202  47.8715947  45.5025505
   8.4908922  50.9080724  44.9681214   7.9107591  51.5665528  44.5859266
   8.2244855  50.0858068  44.5568631   6.9412489  50.3085781  47.1702534
   7.4412267  50.4202316  46.3616853   7.5848097  50.0046834  47.8103342
   7.2733800  53.0680814  44.0237562   6.3859655  53.3530465  43.8057757
   7.6887790  52.9074577  43.1764839  10.6248337  53.0927335  47.7391901
  11.4008727  53.5823787  48.0116518   9.8996471  53.5185389  48.1963771
  13.0620895  53.8054954  48.7965842  13.6565386  53.5650690  48.0859150
  13.1347479  53.0862085  49.4239378   7.2474824  58.5835350  44.2387852
   7.1910026  59.0403901  43.3995485   7.8003167  57.8226035  44.0610695
  11.0579630  54.3725082  45.0637972  10.8016564  53.9721717  45.8946179
  10.4332498  55.0868876  44.9388111  15.3691968  57.1121155  47.5709263
  14.8091526  57.1814344  48.3440825  14.7635471  56.9362140  46.8508759
   7.9809604  59.7740131  41.5340381   7.9258407  59.6084403  40.5928825
   7.3555659  60.4816164  41.6902571   1.2905729  49.2748240  41.1125700
   1.2784399  50.2190080  41.2693971   2.1829151  49.0918386  40.8185161
   5.1057848  45.8691017  45.3671636   4.3390244  45.3149503  45.5128319
   5.5168553  45.9412886  46.2285788  19.4323102  65.1625930  52.7020014
  19.1006427  66.0321341  52.4781229  18.8368716  64.8462214  53.3814044
  16.5306234  63.0095511  52.3191328  16.1870504  63.8997153  52.2430438
  16.8985197  62.8197169  51.4560913  18.3293900  62.2689070  47.4209065
  18.6352777  61.4086434  47.1334980  19.0546505  62.8606691  47.2208059
  18.5995518  64.6983306  49.9192986  17.6858598  64.9287533  50.0875193
  19.0288619  64.7821750  50.7707018  14.2347266  64.8499038  47.9802159
  14.2568963  64.9138371  47.0254139  14.6515325  64.0103546  48.1742665
  16.0348072  62.0687397  48.8438047  16.3149825  61.4010586  49.4698474
  16.8198679  62.2616492  48.3312711  20.1950223  64.2463209  47.7106018
  19.9975044  63.9378297  48.5949350  20.8049929  64.9724848  47.8403948
  14.0233322  65.0494069  43.8378253  13.2134050  64.7041154  44.2133499
  14.7117738  64.7401613  44.4265864  15.9523870  64.1272116  45.4602549
  16.5054908  64.5467570  46.1192573  16.1893956  63.2007864  45.5025505
  19.3302677  66.2372641  44.9681214  18.7501346  66.8957445  44.5859266
  19.0638610  65.4149986  44.5568631  17.7806243  65.6377699  47.1702534
  18.2806022  65.7494234  46.3616853  18.4241851  65.3338752  47.8103342
  15.9451603  61.1982934  45.3671636  15.1783999  60.6441421  45.5128319
  16.3562308  61.2704803  46.2285788   6.1127635  20.9629834  34.8383021
   5.3591343  20.3937232  34.6827026   6.2475176  20.9292499  35.7853656
   1.0776710  23.2258699  39.4929322   1.2712600  24.1304509  39.7388597
   0.9777328  22.7666118  40.3267907   2.3318773  19.7832365  36.1377225
   2.3208649  20.6657081  35.7671158   1.4636152  19.4303916  35.9431762
   2.9343383  20.9332585  32.7426688   3.3774529  20.1839910  32.3445812
   2.0569893  20.9242721  32.3600420   1.2780565  24.8384943  42.6146566
   0.9865373  25.2014924  43.4510027   0.6652696  24.1251951  42.4359898
   2.4776247  22.4037823  35.1349136   3.3123139  22.8427627  35.2986696
   2.6135376  21.9276476  34.3157382   0.7057500  20.0589437  38.4297229
   0.6733820  19.1205438  38.6156913   1.3158124  20.1373474  37.6963054
   6.5234050  21.1205444  37.5703266   7.2537438  20.8590732  38.1310969
   5.9140995  20.3834166  37.6105334   4.6049347  19.2613307  38.1677717
   3.8782511  19.1269272  37.5594208   4.1896634  19.5690136  38.9734435
   2.2227142  15.4825159  35.5211148   2.8171633  15.2420895  34.8104457
   2.2953726  14.7632290  36.1484685   4.5298215  18.7891360  34.2954570
   3.9697773  18.8584549  35.0686132   3.9241718  18.6132345  33.5754066
   6.1154233  35.4647874  36.9884525   6.7532643  35.3454621  36.2847865
   5.9975076  36.4128718  37.0472478   2.9243939  35.4175302  36.9246050
   2.5862451  35.3016367  36.0366585   3.7933708  35.0166467  36.9047056
   3.4063722  36.5710154  42.8832256   3.3952363  36.1762952  42.0112759
   3.5684362  35.8376226  43.4766027   4.3630314  40.9381746  28.2257406
   3.7118294  41.5235827  27.8391420   5.1574677  41.4687941  28.2852443
   1.0527190  36.7324114  38.4212799   1.6490763  36.5080136  37.7069762
   1.1102162  35.9908860  39.0238247   5.6695502  33.1899328  34.0637733
   6.4558591  32.7718751  33.7128150   5.9334206  34.0945420  34.2319382
   5.8405579  38.6272178  28.7626390   5.2051412  38.7006805  29.4747295
   5.5102985  39.2165777  28.0845469  11.0703929  33.1274561  34.9670712
  11.8029101  32.5573778  35.2008541  10.3143285  32.7396161  35.4077218
   2.6880049  35.5501802  32.1634054   2.3238256  35.0232423  32.8746976
   3.5447164  35.1600271  31.9900540   8.5929349  26.8396135  39.4265321
   8.2612674  27.7091546  39.2026536   7.9974963  26.5232419  40.1059351
   2.3285536  30.5791702  27.1595403   2.4959938  31.4471939  27.5265874
   2.1382705  30.7418984  26.2356692   5.0860869  39.0408681  38.8261233
   4.7861592  39.9433720  38.7177041   4.7411928  38.7740864  39.6782386
   8.4858012  31.5591221  36.5058671   7.5774890  31.4906630  36.2117432
   8.4345608  32.0363166  37.3340496   2.3074756  33.0349360  28.1442070
   2.1874382  33.4806410  28.9827550   1.6127345  33.3834677  27.5855608
   2.5598878  32.9780867  44.4493568   1.7832212  33.5374787  44.4396433
   3.1989441  33.4637650  44.9708438  10.3519659  29.7607660  38.2836545
   9.7094039  30.0540193  37.6376339   9.8474587  29.6460580  39.0889741
   8.0059823  33.5070833  28.9722404   8.9177679  33.7398220  28.7970101
   7.4969470  34.0907877  28.4097482   6.2900590  37.9295461  42.6083696
   6.6983946  37.4877871  41.8638329   5.5677852  37.3548088  42.8617889
   2.6431660  32.8668067  39.9817253   3.4892855  33.2907481  40.1251902
   2.5830298  32.2101692  40.6755816   6.6129405  38.4896651  36.3635985
   5.9838267  38.6542365  35.6612053   6.2255067  38.9038261  37.1346949
  10.4918637  39.4251089  33.7180349   9.8069675  39.8049990  33.1677382
  10.5762486  40.0346416  34.4512297   5.7931106  30.5272436  41.6398427
   5.5492037  31.2814496  41.1032703   6.0691036  30.9057783  42.4745674
   7.7469568  37.0711048  40.3175693   7.9586464  37.7142808  39.6410074
   7.6999317  36.2373365  39.8497623   5.3495797  29.6828869  37.2212265
   4.4880276  29.9810122  37.5129002   5.3758232  29.8999268  36.2893297
   2.1657367  38.2271059  33.6286070   2.6295712  38.5058762  32.8390693
   1.9014165  37.3254504  33.4459161   1.1026253  34.3494212  30.4375635
   1.8050296  34.8015255  30.9049562   0.7706881  33.7078031  31.0655529
   8.8615396  39.9483004  38.4898050   9.6832840  39.5463191  38.2080732
   8.8577799  39.8451238  39.4414166   2.6272000  39.4967047  40.6458760
   2.6916432  39.9587454  41.4816932   1.9182924  38.8664412  40.7741070
   2.3420017  41.1635154  30.5137741   2.2065692  42.0086690  30.9422589
   2.8829830  41.3654432  29.7503674   1.7455318  28.6584613  44.7672352
   2.4865031  29.2591766  44.6876815   1.9773241  27.9162251  44.2090395
   3.9688494  41.7858721  44.6438083   3.5252348  40.9995099  44.3258987
   4.6305707  41.9737871  43.9781974   6.0669732  42.0661521  42.6719484
   6.0488207  42.8870402  42.1799753   6.9889652  41.9415596  42.8969625
   2.5242786  39.5805650  43.5142992   3.0571123  38.8193938  43.2842300
   1.9956867  39.2879302  44.2567147   5.6912481  24.6865716  39.0436634
   5.3476750  25.5767358  38.9675745   6.0591444  24.4967374  38.1806219
   5.6562764  34.6774327  27.5509069   5.1409387  35.4478932  27.7897457
   5.3840072  34.0039463  28.1742131   3.2409875  29.5224028  32.6094308
   2.3851471  29.1330878  32.4299946   3.6536826  29.6015989  31.7494093
   4.7709021  27.0570371  37.0085867   4.2673817  27.0200507  36.1953673
   5.0639628  27.9663114  37.0682524   1.0151907  27.1409101  36.0152049
   1.8804904  26.9451910  35.6557939   1.0829416  26.9119453  36.9421406
  10.6297038  37.4306682  29.4862243   9.8526481  37.0917841  29.0417405
  11.3088519  37.4359305  28.8117208   5.4449067  32.5501419  29.3768850
   5.1399202  32.8647569  30.2278994   6.3979509  32.6282839  29.4196183
   3.8895499  38.7091643  31.0261804   3.3616860  37.9744402  30.7135042
   3.3883001  39.4866319  30.7801773   8.8688345  36.9040663  36.1428851
   8.2112019  37.5939925  36.2308979   9.6728744  37.2937095  36.4862837
   7.6793804  35.2585036  34.1932792   8.1925685  35.8915028  34.6954502
   8.3295027  34.6586231  33.8276153   2.0348099  36.5271853  24.0296777
   1.1275161  36.2961106  24.2287926   2.5319131  35.7309472  24.2170759
   4.9416178  45.2369360  26.9493464   4.2677877  45.5401057  27.5578421
   5.3282000  46.0398441  26.5998921   4.1574634  32.7334491  36.4391133
   3.2397196  32.9549438  36.2812821   4.5734778  32.8080802  35.5802840
   4.9409682  34.1325907  31.5693813   5.6881501  34.6447304  31.2600935
   5.2101272  33.8109960  32.4298207   3.2136332  36.6284448  28.5520768
   2.3047552  36.3443481  28.6493237   3.2431416  37.0483526  27.6924074
   8.4455600  40.2391037  32.3211935   7.9917927  39.3981947  32.3777126
   7.8149566  40.8752436  32.6586715   7.3888519  31.1683023  33.5512603
   6.6511276  30.6560410  33.8822845   7.6415293  30.7283405  32.7395879
   6.8888539  42.0767534  33.2561753   7.1811513  42.6372591  32.5374119
   7.3987160  42.3696095  34.0114912   7.4900147  23.9459275  34.1454372
   7.7959023  23.0856639  33.8580287   8.2152751  24.5376896  33.9453366
   1.7621226  34.2413068  34.6530563   1.8169836  33.2886905  34.5773039
   0.9512428  34.3972508  35.1371861   2.9112420  38.1693192  25.8908846
   2.4731850  37.4529050  25.4314483   3.6522861  38.3969306  25.3293938
   1.8522164  42.8547885  34.3455206   1.8098343  43.0808731  33.4163738
   2.7684863  42.6211260  34.4941008   5.2987798  33.3231953  41.2435836
   5.6537186  33.5503426  42.1030301   5.9459929  33.6550329  40.6213091
  11.0285535  36.4450389  31.9485165  10.8903434  36.6351985  31.0206354
  10.6721754  37.2069771  32.4053216  11.0554915  38.5126916  36.9596436
  11.4891421  38.4202205  37.8079490  11.7686495  38.4884416  36.3216452
   4.7882809  42.1129010  38.4929537   4.8419832  42.6819946  39.2607253
   3.9197591  42.2830895  38.1283574  11.9170464  38.5550616  39.4929322
  12.1106354  39.4596427  39.7388597  11.8171082  38.0958035  40.3267907
   3.5706775  28.4408507  41.9919649   2.9234690  29.1398456  41.8984125
   4.3407790  28.8744651  42.3595897   6.9785573  38.7057359  45.0670202
   6.8271079  38.4767911  44.1500286   6.9690252  39.6627960  45.0801547
   3.7470909  36.2789272  40.0516469   4.6762969  36.4300431  39.8785436
   3.3261939  36.3673293  39.1965115   2.5459241  40.3039936  37.8215006
   2.4070327  39.9358721  38.6940944   1.7573837  40.8187576  37.6498964
   3.1407393  45.4049033  29.1640543   3.3159149  44.9337076  29.9786165
   2.4540181  46.0314799  29.3921804   4.0964456  39.6821539  35.2103844
   3.7614289  39.6422309  36.1061494   3.5968402  39.0166255  34.7374254
   7.0323648  37.0277573  25.4840904   6.4152818  36.3024401  25.3873956
   6.5640136  37.7886933  25.1407978   0.6991001  34.8009128  40.2240105
   1.4090619  34.1602320  40.1826723   0.6560309  35.0522023  41.1466286
   8.6877779  41.7376482  43.1446684   8.6290326  41.0535702  42.4777267
   9.0897298  42.4795472  42.6927310   8.6895187  39.7016065  41.3760664
   7.8021965  39.3641987  41.4987063   9.2593738  38.9699097  41.6129429
   2.2196340  44.3617518  38.3421907   2.1466512  45.1672489  38.8541212
   1.7773733  44.5609484  37.5169928   2.0086120  43.5989288  31.8524729
   1.2253642  44.1410968  31.9462953   2.7078865  44.1163267  32.2518970
   5.3182770  29.4083917  34.4958934   5.8151469  28.6553880  34.1760004
   4.5469751  29.4448234  33.9302143  13.1712527  35.1124283  36.1377225
  13.1602403  35.9948998  35.7671158  12.3029907  34.7595834  35.9431762
   4.6795024  44.2604352  40.4980066   5.3922996  44.8951817  40.4255967
   4.1885052  44.3568218  39.6820067   6.4012550  38.1655605  32.0697357
   5.4668829  38.2857067  31.9002062   6.5789219  37.2628071  31.8057367
   1.9017739  31.5501300  34.2230618   1.5315526  30.9972341  34.9111524
   2.3976831  30.9459434  33.6705619   9.7885102  34.0072924  32.6047391
  10.2545554  34.8400915  32.5307694  10.2392602  33.5417905  33.3092650
   7.8561333  40.3516745  29.6033543   8.1321177  40.2373340  30.5127418
   6.9865832  39.9534230  29.5645717   7.7601765  26.3753511  36.6438293
   6.8464844  26.6057738  36.8120500   8.1894866  26.4591955  37.4952325
   7.5308223  34.5643403  39.1438187   6.8779673  34.8119310  38.4890640
   7.9088603  33.7507541  38.8100664   4.4915397  44.6003096  33.2466357
   4.6737791  43.7824752  33.7094109   5.3148383  44.8170788  32.8091247
   4.8257562  43.5271281  30.5081406   5.3545329  43.0163736  29.8951568
   5.0885782  43.2113811  31.3726939   3.5795796  35.3063214  45.6304224
   2.9036433  35.2057343  46.3006599   4.4023430  35.1502428  46.0940221
   2.3218579  46.6130141  39.8661840   2.8736887  46.7761763  40.6310925
   2.6624772  47.2034579  39.1941865   7.1729453  41.4391399  45.7210494
   7.7169357  42.0521357  45.2265449   6.5916298  41.9970977  46.2377507
   5.4586966  44.5612117  36.8525522   5.3338106  43.7601857  36.3436468
   6.1166057  45.0558310  36.3639492   7.5221875  42.3621137  38.4805072
   6.5752210  42.2426488  38.4083399   7.8704648  41.4743635  38.5631334
   4.5268308  42.1573853  34.6809424   4.3793270  41.2290561  34.8616994
   5.3521801  42.1793944  34.1966500   8.1302430  42.9802412  35.7674297
   9.0548977  42.7745273  35.6298748   7.9617733  42.7318813  36.6763639
   1.7390465  26.2778283  38.4420308   2.5616534  25.8038762  38.3199198
   1.9828528  27.0568767  38.9418994   4.5229822  30.0111691  29.6741542
   4.7393437  30.8936329  29.3730370   4.0423889  29.6197904  28.9447184
   1.1225427  29.9599952  36.2993176   1.1086995  29.0641045  35.9625474
   1.8397855  29.9670616  36.9331462   2.9751557  30.3937292  38.3446303
   2.7169335  31.3154363  38.3430634   2.4436598  29.9967727  39.0346767
   7.9197746  43.4988079  31.1236389   8.0934624  42.9334502  30.3710241
   8.4126637  44.2988974  30.9415879   3.3953513  26.5269243  34.7047466
   3.4175210  26.5908576  33.7499445   3.8121572  25.6873751  34.8987972
  13.7737137  36.2624502  32.7426688  14.2168283  35.5131827  32.3445812
  12.8963647  36.2534639  32.3600420   8.9072918  42.8154844  28.2233287
   9.6023823  43.4361536  28.4420601   9.2496069  41.9650195  28.4985665
  10.8064342  40.2654549  29.7520618  11.3315666  40.6041822  29.0269938
  10.7186694  39.3301565  29.5683752   2.4684390  44.1788623  41.8810494
   2.7771517  43.9337770  42.7533194   3.2659872  44.3835261  41.3929364
   2.4905002  46.3326532  34.1115871   2.0509993  45.8402911  34.8048727
   3.2413119  45.7899500  33.8707946  10.4958248  40.8987453  45.0571816
   9.7053791  40.8811592  44.5176315  10.2591602  41.4375747  45.8120852
  10.6156123  37.7479919  42.3704544  10.6654128  37.5829927  43.3120067
  10.5070046  36.8807178  41.9802425   7.9059885  33.7310847  43.6863851
   8.8069748  33.5917312  43.3947849   7.9807860  33.8965302  44.6262028
   2.2402690  31.1077702  42.5317037   1.3706000  31.4011268  42.2599626
   2.4762171  31.6918147  43.2524301  12.1174320  40.1676861  42.6146566
  11.8259128  40.5306841  43.4510027  11.5046451  39.4543869  42.4359898
  13.3170002  37.7329741  35.1349136  14.1516893  38.1719545  35.2986696
  13.4529131  37.2568394  34.3157382  10.3661508  35.2909475  41.0826624
  10.8415629  35.4837122  40.2745475   9.4427073  35.3468661  40.8370007
   4.9441724  27.3257319  40.0482458   5.4623668  28.0618346  39.7228946
   4.5896857  27.6321312  40.8829217   5.1954318  23.7457601  35.5683354
   5.4756072  23.0780791  36.1943781   5.9804925  23.9386697  35.0558018
   2.9987787  42.9216595  27.1308380   2.4261754  43.5406783  26.6778852
   3.5720581  43.4715957  27.6648302   9.0663177  32.1675235  39.3154929
  10.0180600  32.2673333  39.3367153   8.8966627  31.3753504  39.8253014
   7.0877556  29.2530819  39.5014330   6.4927488  29.5335831  38.8060819
   6.8027253  29.7424720  40.2731071   6.2185047  43.2053746  28.2616963
   7.1515720  43.1399307  28.4649838   6.1308260  44.0410012  27.8031495
   8.8473063  42.5219616  25.2220910   8.7686695  42.1879479  26.1156668
   9.6682730  43.0141384  25.2212383  11.5451255  35.3881355  38.4297229
  11.5127575  34.4497356  38.6156913  12.1551878  35.4665392  37.6963054
   3.3834585  34.2577408  24.4724433   4.3293690  34.1283616  24.5412851
   3.0048830  33.5192070  24.9493861  11.6945743  32.1792399  38.4755512
  11.1784792  31.3950855  38.2885441  12.5785692  31.8511115  38.6402032
   9.3556470  25.9233414  34.4351325   9.1581291  25.6148502  35.3194657
   9.9656176  26.6495053  34.5649255  15.4443102  34.5905225  38.1677717
  14.7176265  34.4561190  37.5594208  15.0290388  34.8982053  38.9734435
   3.2673278  38.3095154  45.9325090   4.1876287  38.4873753  46.1265136
   3.2322861  37.3651200  45.7804789   1.5677503  32.1827385  24.4079318
   0.6608958  31.8860497  24.4842032   1.8453484  31.8857203  23.5413604
   3.1839568  26.7264274  30.5623559   2.3740297  26.3811359  30.9378806
   3.8723985  26.4171818  31.1511171   5.1130117  25.8042321  32.1847856
   5.6661155  26.2237774  32.8437879   5.3500203  24.8778069  32.2270812
   1.1363216  31.7929395  47.9650620   1.0359943  32.7423752  47.8962711
   0.9184758  31.4647634  47.0926690   8.4908924  27.9142846  31.6926520
   7.9107593  28.5727650  31.3104573   8.2244856  27.0920191  31.2813938
   6.9412490  27.3147904  33.8947841   7.4412268  27.4264438  33.0862160
   7.5848098  27.0108957  34.5348649   0.9994486  35.2226534  46.7815682
   0.5161568  36.0226894  46.9879571   1.0855425  35.2334478  45.8283126
   7.2733802  30.0742937  30.7482869   6.3859657  30.3592587  30.5303063
   7.6887791  29.9136700  29.9010146  10.6248338  30.0989458  34.4637208
  11.4008728  30.5885910  34.7361825   9.8996472  30.5247512  34.9209077
  13.0620896  30.8117077  35.5211148  13.6565387  30.5712813  34.8104457
  13.1347480  30.0924207  36.1484685   6.4177015  39.8387611  24.8430889
   7.1212865  40.0437614  25.4588544   5.6939664  40.4064373  25.1079972
   7.2474825  35.5897473  30.9633159   7.1910027  36.0466024  30.1240791
   7.8003168  34.8288157  30.7856002  11.0579631  31.3787204  31.7883278
  10.8016566  30.9783840  32.6191486  10.4332499  32.0930998  31.6633417
   8.3263713  40.2770140  26.8929349   9.1609317  39.8451339  26.7106823
   8.1648056  40.1052154  27.8206243   7.9809605  36.7802254  28.2585688
   7.9258409  36.6146525  27.3174132   7.3555660  37.4878287  28.4147878
   5.2955512  39.0851166  47.5839251   6.1646672  39.2591818  47.2225886
   4.8162263  39.9045582  47.4614980   1.2905730  26.2810363  27.8371006
   1.2784400  27.2252203  27.9939277   2.1829152  26.0980508  27.5430468
   5.1057850  22.8753139  32.0916943   4.3390245  22.3211626  32.2373625
   5.5168555  22.9475008  32.9531095  13.7637694  50.7467220  36.9246050
  13.4256205  50.6308284  36.0366585  14.6327462  50.3458385  36.9047056
   9.6224510  52.6002696  32.9142941   9.0589375  52.5092633  32.1459229
   9.5076905  51.7802601  33.3945434  14.2457477  51.9002071  42.8832256
  14.2346118  51.5054870  42.0112759  14.4078116  51.1668144  43.4766027
   7.1688942  54.0953888  35.7527161   7.9610234  53.7544712  35.3373461
   7.4085592  54.2048863  36.6729315  15.2024068  56.2673664  28.2257406
  14.5512048  56.8527744  27.8391420  15.9968431  56.7979859  28.2852443
   9.1279696  53.3562801  28.6244540   9.9010572  52.8091788  28.4857416
   9.4805094  54.2207050  28.8359002  10.9664738  54.6839183  41.8311440
  10.6754604  55.5884814  41.7158106  11.6021722  54.7255711  42.5455509
  11.8920945  52.0616032  38.4212799  12.4884517  51.8372054  37.7069762
  11.9495916  51.3200777  39.0238247  11.4645973  49.5155467  26.2562990
  11.7171494  48.9936988  25.4946453  10.5270532  49.3521612  26.3589674
  16.6799334  53.9564096  28.7626390  16.0445166  54.0298722  29.4747295
  16.3496740  54.5457695  28.0845469  11.1842262  51.4183573  28.4587365
  11.0678520  50.7428476  29.1268449  11.2944522  50.9315947  27.6419518
  13.5273803  50.8793720  32.1634054  13.1632010  50.3524341  32.8746976
  14.3840919  50.4892189  31.9900540  13.1679290  45.9083620  27.1595403
  13.3353692  46.7763856  27.5265874  12.9776459  46.0710901  26.2356692
  15.9254623  54.3700599  38.8261233  15.6255346  55.2725638  38.7177041
  15.5805683  54.1032782  39.6782386   9.3767105  50.8214396  34.8597938
   8.4517601  50.6890610  35.0675629   9.6251518  51.6008615  35.3567880
  13.1468511  48.3641277  28.1442070  13.0268136  48.8098328  28.9827550
  12.4521099  48.7126595  27.5855608   6.7375916  50.4647669  35.6941727
   6.8668297  50.7182148  36.6081138   6.0573367  51.0575377  35.3746382
  10.9075403  61.1344919  31.7932201  10.8299433  62.0852744  31.8720682
  10.3037047  60.7890792  32.4507127  13.3992633  48.3072784  44.4493568
  12.6225967  48.8666705  44.4396433  14.0383196  48.7929567  44.9708438
  18.8453577  48.8362750  28.9722404  19.7571433  49.0690137  28.7970101
  18.3363224  49.4199795  28.4097482  11.6539005  51.1158238  44.0111535
  12.3953689  51.6543282  43.7346358  10.9475991  51.7424527  44.1683087
  17.1294345  53.2587378  42.6083696  17.5377701  52.8169789  41.8638329
  16.4071606  52.6840006  42.8617889  13.4825415  48.1959985  39.9817253
  14.3286610  48.6199399  40.1251902  13.4224052  47.5393609  40.6755816
  17.4523159  53.8188569  36.3635985  16.8232022  53.9834283  35.6612053
  17.0648821  54.2330178  37.1346949  21.3312391  54.7543007  33.7180349
  20.6463429  55.1341908  33.1677382  21.4156241  55.3638333  34.4512297
  13.0051121  53.5562977  33.6286070  13.4689467  53.8350680  32.8390693
  12.7407919  52.6546422  33.4459161   9.8975202  53.1034459  36.5665834
  10.4676559  53.5321727  35.9283318  10.4883314  52.8217043  37.2650019
  11.9420007  49.6786129  30.4375635  12.6444051  50.1307173  30.9049562
  11.6100636  49.0369948  31.0655529  10.3900369  48.2697886  44.8126845
   9.7599029  48.9514167  45.0462242  10.2836457  48.1580968  43.8679983
   5.6845341  47.9369682  35.7392769   4.8944395  48.1927211  35.2632880
   6.1756589  48.7518020  35.8444810  19.7009151  55.2774921  38.4898050
  20.5226595  54.8755108  38.2080732  19.6971554  55.1743155  39.4414166
   7.6360087  48.3014261  32.6976246   6.8391250  48.4132956  33.2159741
   7.4085679  48.6400914  31.8317136  13.4665754  54.8258965  40.6458760
  13.5310187  55.2879372  41.4816932  12.7576678  54.1956329  40.7741070
   3.9683044  48.1900172  38.1707760   4.2191083  49.0747182  38.4365336
   4.5042593  48.0104774  37.3982852  13.1813772  56.4927072  30.5137741
  13.0459447  57.3378608  30.9422589  13.7223584  56.6946350  29.7503674
   9.6681112  42.5718652  47.1752096   9.2748057  42.0184850  47.8499740
  10.4847252  42.8829230  47.5658613   6.6343169  54.0102510  31.0865666
   7.1467690  54.8045760  31.2371230   7.2865882  53.3128800  31.0199267
   8.4438054  57.1268266  33.1688419   8.6204682  58.0486231  32.9809403
   9.2394888  56.8126686  33.5982799  12.5849073  43.9876531  44.7672352
  13.3258786  44.5883684  44.6876815  12.8166995  43.2454169  44.2090395
   7.7290411  49.1732898  43.0450582   7.6143926  48.2718155  43.3457681
   6.8734928  49.4196595  42.6935399  14.8082248  57.1150639  44.6438083
  14.3646102  56.3287017  44.3258987  15.4699462  57.3029789  43.9781974
   9.5669369  58.6446440  39.1698761  10.1176795  58.5163503  38.3975755
   8.7280845  58.9441329  38.8193654  16.9063486  57.3953438  42.6719484
  16.8881962  58.2162319  42.1799753  17.8283406  57.2707514  42.8969625
  13.3636541  54.9097568  43.5142992  13.8964877  54.1485856  43.2842300
  12.8350622  54.6171220  44.2567147   4.5992086  52.3391164  31.8625236
   5.4367308  52.7488173  31.6458944   4.7770354  51.3990607  31.8325430
  16.4956518  50.0066245  27.5509069  15.9803142  50.7770850  27.7897457
  16.2233827  49.3331381  28.1742131  14.0803629  44.8515946  32.6094308
  13.2245226  44.4622796  32.4299946  14.4930581  44.9307907  31.7494093
  16.2842821  47.8793337  29.3768850  15.9792957  48.1939486  30.2278994
  17.2373263  47.9574757  29.4196183  14.7289253  54.0383560  31.0261804
  14.2010615  53.3036320  30.7135042  14.2276756  54.8158237  30.7801773
   9.4607981  44.7003227  33.3868416  10.0351733  44.4778408  32.6541609
  10.0478963  44.7691921  34.1397017   9.7877568  46.7307688  27.4064301
   8.9514880  47.0682374  27.7273576   9.6482338  46.5956668  26.4691438
  11.7630649  41.5744476  32.1143485  11.1095061  41.2593493  31.4900100
  11.7211123  40.9520216  32.8403308  12.8741853  51.8563771  24.0296777
  11.9668915  51.6253024  24.2287926  13.3712885  51.0601390  24.2170759
  15.7809932  60.5661278  26.9493464  15.1071631  60.8692975  27.5578421
  16.1675754  61.3690358  26.5998921  14.9968389  48.0626409  36.4391133
  14.0790950  48.2841356  36.2812821  15.4128533  48.1372720  35.5802840
  15.7803437  49.4617825  31.5693813  16.5275256  49.9739222  31.2600935
  16.0495026  49.1401878  32.4298207  14.0530087  51.9576366  28.5520768
  13.1441306  51.6735398  28.6493237  14.0825171  52.3775444  27.6924074
  19.2849354  55.5682955  32.3211935  18.8311681  54.7273865  32.3777126
  18.6543321  56.2044353  32.6586715  17.7282293  57.4059452  33.2561753
  18.0205268  57.9664509  32.5374119  18.2380914  57.6988013  34.0114912
   4.6218257  49.6781880  32.5335970   4.4242657  49.0851240  31.8087036
   4.0664921  49.3734090  33.2511909  12.6014981  49.5704986  34.6530563
  12.6563591  48.6178823  34.5773039  11.7906183  49.7264425  35.1371861
  13.7506175  53.4985109  25.8908846  13.3125605  52.7820968  25.4314483
  14.4916615  53.7261224  25.3293938  10.5407341  48.1882046  32.4120942
   9.7275206  48.4876216  32.8186134  11.0366335  47.7937735  33.1295424
  12.6915919  58.1839803  34.3455206  12.6492097  58.4100649  33.4163738
  13.6078618  57.9503177  34.4941008  10.0321416  45.7600401  38.0282177
  10.6720795  45.6189161  37.3305140   9.1998946  45.4734915  37.6520779
  10.8081719  55.0602832  34.1417169  11.6022318  54.5653152  33.9399744
  10.0973412  54.5320695  33.7784875  15.6276564  57.4420927  38.4929537
  15.6813586  58.0111864  39.2607253  14.7591345  57.6122812  38.1283574
   7.1164483  49.2045914  30.2176922   6.1862071  49.1430369  30.4346884
   7.2121955  48.6821866  29.4213563   7.0350032  45.7300726  32.8055164
   7.2956849  46.6446060  32.6964324   7.8567204  45.2625169  32.9551776
   8.5074957  47.1438484  39.9753988   9.1798011  46.9355846  39.3266637
   7.6804744  46.9460570  39.5359220  14.4100529  43.7700424  41.9919649
  13.7628444  44.4690374  41.8984125  15.1801545  44.2036568  42.3595897
  17.8179327  54.0349277  45.0670202  17.6664834  53.8059828  44.1500286
  17.8084007  54.9919878  45.0801547  14.5864664  51.6081189  40.0516469
  15.5156724  51.7592349  39.8785436  14.1655694  51.6965210  39.1965115
  13.3852995  55.6331854  37.8215006  13.2464081  55.2650638  38.6940944
  12.5967592  56.1479493  37.6498964  13.9801147  60.7340950  29.1640543
  14.1552903  60.2628993  29.9786165  13.2933935  61.3606716  29.3921804
  14.9358211  55.0113457  35.2103844  14.6008043  54.9714226  36.1061494
  14.4362156  54.3458172  34.7374254   8.9102455  50.4181087  40.7356425
   8.7722252  49.6861325  41.3367964   9.8207378  50.3289987  40.4540613
  17.8717402  52.3569491  25.4840904  17.2546573  51.6316319  25.3873956
  17.4033891  53.1178851  25.1407978  11.5384755  50.1301046  40.2240105
  12.2484374  49.4894238  40.1826723  11.4954063  50.3813941  41.1466286
  19.5271534  57.0668399  43.1446684  19.4684080  56.3827619  42.4777267
  19.9291052  57.8087389  42.6927310  10.2513689  47.1166264  42.0435744
   9.7151046  46.6657002  42.6957341   9.6630398  47.2512173  41.3006209
   9.6615948  46.5754915  24.6062208   8.7845414  46.4543716  24.2424455
  10.1373701  45.7840993  24.3541097  19.5288941  55.0307983  41.3760664
  18.6415720  54.6933905  41.4987063  20.0987492  54.2991014  41.6129429
   1.1818088  51.3632075  34.7003715   1.8689128  51.0493805  34.1124730
   1.0266217  52.2673440  34.4270967   5.9852810  46.2522271  39.1288739
   5.9010999  45.6447941  38.3939149   5.1635517  46.7431290  39.1298235
  13.0590095  59.6909435  38.3421907  12.9860266  60.4964407  38.8541212
  12.6167488  59.8901401  37.5169928  12.8479874  58.9281206  31.8524729
  12.0647396  59.4702886  31.9462953  13.5472619  59.4455185  32.2518970
  15.5188778  59.5896270  40.4980066  16.2316750  60.2243734  40.4255967
  15.0278807  59.6860136  39.6820067  17.2406305  53.4947522  32.0697357
  16.3062584  53.6148985  31.9002062  17.4182973  52.5919989  31.8057367
  12.7411493  46.8793218  34.2230618  12.3709281  46.3264258  34.9111524
  13.2370586  46.2751351  33.6705619  10.5700692  57.3390713  41.3185636
  11.2710151  57.9727196  41.4715031  10.0995807  57.6805445  40.5581276
  15.3309151  59.9295014  33.2466357  15.5131546  59.1116670  33.7094109
  16.1542137  60.1462706  32.8091247  15.6651317  58.8563199  30.5081406
  16.1939083  58.3455653  29.8951568  15.9279537  58.5405729  31.3726939
  14.4189551  50.6355131  45.6304224  13.7430188  50.5349261  46.3006599
  15.2417184  50.4794345  46.0940221   6.1668410  56.8727068  38.2516739
   6.7521846  56.1270756  38.3844643   5.9693248  57.1831025  39.1353403
   9.0207065  59.9078315  33.2679181   8.3517440  60.3924443  32.7843222
   8.8819935  60.1547536  34.1822560  13.1612333  61.9422059  39.8661840
  13.7130642  62.1053680  40.6310925  13.5018527  62.5326497  39.1941865
   8.1376827  44.2897209  40.4683725   8.2018153  45.1512040  40.0561122
   8.0743947  43.6771210  39.7356083   7.6129099  46.3620341  44.1156759
   8.2401138  45.9797419  44.7294283   6.7557018  46.1434543  44.4812451
  18.0123208  56.7683316  45.7210494  18.5563112  57.3813275  45.2265449
  17.4310053  57.3262895  46.2377507   4.3894642  48.1696770  30.0475114
   4.6848083  47.2607449  29.9942167   3.4882678  48.1484510  29.7256116
  16.2980721  59.8904034  36.8525522  16.1731860  59.0893774  36.3436468
  16.9559812  60.3850228  36.3639492   7.9188889  46.2452767  36.0302662
   7.1975475  46.8588735  35.8910136   8.7082145  46.7810532  35.9519308
  18.3615629  57.6913055  38.4805072  17.4145965  57.5718406  38.4083399
  18.7098402  56.8035553  38.5631334  10.7215203  43.5807193  42.3043314
  11.2449604  43.8269490  43.0669623  10.5027536  44.4127228  41.8846451
   6.1182484  45.8510868  30.1714439   5.7895190  44.9708247  29.9889545
   6.4721854  45.7958537  31.0590828  15.3662062  57.4865771  34.6809424
  15.2187025  56.5582478  34.8616994  16.1915556  57.5085861  34.1966500
   9.2324307  46.1383838  30.5389917   9.5720379  46.6669759  29.8168525
   9.6796427  46.4764244  31.3148483  18.9696184  58.3094329  35.7674297
  19.8942732  58.1037191  35.6298748  18.8011488  58.0610731  36.6763639
  11.9267748  44.5220889  39.9892985  11.5864568  43.7228702  40.3913664
  11.2206754  44.8222599  39.4169818  12.5784219  41.6070201  38.4420308
  13.4010289  41.1330679  38.3199198  12.8222283  42.3860685  38.9418994
  11.2192454  44.6358459  28.7383209  11.9400816  45.0139712  28.2346926
  10.5957758  45.3547336  28.8418187  10.1022798  48.2989322  36.2512286
   9.9567379  48.6129625  37.1436568   9.6248002  48.9174222  35.6983185
  11.9619181  45.2891870  36.2993176  11.9480750  44.3932963  35.9625474
  12.6791609  45.2962533  36.9331462  13.8145312  45.7229210  38.3446303
  13.5563090  46.6446280  38.3430634  13.2830352  45.3259644  39.0346767
  18.7591501  58.8279997  31.1236389  18.9328378  58.2626419  30.3710241
  19.2520392  59.6280892  30.9415879   4.5768460  50.8394666  39.1899947
   4.0321928  51.6154474  39.3220222   5.4547810  51.1865471  39.0319069
  11.3656077  44.1706250  31.5680746  11.4871988  43.2422896  31.7671633
  11.0758119  44.1844936  30.6559061   5.3634482  49.9664562  42.0830104
   4.6216218  50.1147198  42.6694735   5.0427226  50.2272828  41.2196854
  13.3078145  59.5080541  41.8810494  13.6165271  59.2629687  42.7533194
  14.1053627  59.7127179  41.3929364  13.3298757  61.6618450  34.1115871
  12.8903747  61.1694829  34.8048727  14.0806874  61.1191418  33.8707946
   5.8091096  57.8529991  34.1140499   6.6349116  57.5533763  33.7339142
   5.4585148  57.0837613  34.5630288  10.7772629  57.2056459  36.1838172
  10.1552638  56.5427164  35.8840400  11.4477496  57.2317591  35.5011820
   4.0099701  55.7716317  35.0729432   3.1731609  55.3438492  34.8913434
   3.9823346  55.9648761  36.0100224  10.8497156  45.6838247  45.7770678
  10.8985312  46.5600370  45.3948448  11.3919671  45.1415640  45.2042322
  21.3352002  56.2279371  45.0571816  20.5447546  56.2103509  44.5176315
  21.0985357  56.7667664  45.8120852  10.3386136  55.7560383  29.6596633
  10.4874256  56.4395847  29.0063306  11.1452579  55.7365473  30.1746089
  13.0796445  46.4369620  42.5317037  12.2099754  46.7303186  42.2599626
  13.3155925  47.0210065  43.2524301  22.9568074  55.4968778  42.6146566
  22.6652882  55.8598759  43.4510027  22.3440205  54.7835787  42.4359898
   8.0938769  51.7825560  30.6657702   7.8484811  50.8787890  30.8637912
   8.2634683  51.7842711  29.7237180   7.3634416  47.5153918  28.1643863
   6.6703661  47.5898273  27.5083899   7.1186168  46.7514261  28.6865380
  13.8381541  58.2508513  27.1308380  13.2655509  58.8698700  26.6778852
  14.4114335  58.8007875  27.6648302  17.0578801  58.5345663  28.2616963
  17.9909474  58.4691225  28.4649838  16.9702014  59.3701930  27.8031495
  14.2228340  49.5869326  24.4724433  15.1687445  49.4575534  24.5412851
  13.8442585  48.8483988  24.9493861  14.1067032  53.6387072  45.9325090
  15.0270042  53.8165671  46.1265136  14.0716616  52.6943117  45.7804789
  12.4071257  47.5119302  24.4079318  11.5002712  47.2152415  24.4842032
  12.6847238  47.2149120  23.5413604   3.3249197  48.8325666  34.8578365
   3.0051982  47.9790974  34.5652739   2.7782626  49.0474244  35.6136332
   7.1029105  51.5488107  38.5747871   7.3215115  52.4805214  38.5935905
   7.5154879  51.1896081  39.3602675  11.9756970  47.1221312  47.9650620
  11.8753697  48.0715669  47.8962711  11.7578512  46.7939551  47.0926690
  11.1770042  44.3706237  24.5491297  12.0389206  44.6961136  24.8087115
  11.3620386  43.5837733  24.0364363   3.1937457  52.4528577  36.8271486
   2.5000929  52.0382530  36.3141441   3.9410448  52.4949114  36.2304905
  11.8388240  50.5518451  46.7815682  11.3555322  51.3518811  46.9879571
  11.9249179  50.5626396  45.8283126   5.1074200  52.3846831  34.7037501
   5.0844888  52.4834518  33.7519384   5.4174836  53.2311982  35.0254667
   7.7661578  54.4422986  38.8184115   8.7204831  54.4106928  38.7514047
   7.5674101  53.9813610  39.6334341   8.3560960  53.0124102  41.3854913
   9.1753849  53.5068181  41.4089750   8.6297768  52.0956070  41.3572481
   6.1211807  59.9842605  35.8354313   5.9866275  59.2243006  35.2692311
   5.7043869  60.7083505  35.3683102  17.2570770  55.1679529  24.8430889
  17.9606620  55.3729531  25.4588544  16.5333418  55.7356291  25.1079972
  18.0868580  50.9189390  30.9633159  18.0303781  51.3757942  30.1240791
  18.6396922  50.1580075  30.7856002   9.2780933  60.8811922  36.0472756
   9.1613317  61.8257355  35.9451446   8.4573379  60.5785484  36.4358555
   3.6095874  47.3462236  42.0847110   4.2554738  46.8361190  42.5734335
   3.4013025  48.0830917  42.6590535  16.1349266  54.4143083  47.5839251
  17.0040426  54.5883736  47.2225886  15.6556018  55.2337500  47.4614980
  10.3035447  61.5340184  39.2628684  11.2062693  61.5663795  39.5795179
  10.0772817  60.6040635  39.2775020  12.0589049  60.2871171  35.9238763
  11.1084680  60.2873032  35.8103135  12.3621535  59.5403905  35.4074798
   7.9493365  44.4929853  46.1822124   8.8124827  44.1366658  46.3925449
   7.3758776  44.1543748  46.8697529  27.7941742  66.1231709  36.9884525
  28.4320152  66.0038457  36.2847865  27.6762585  67.0712553  37.0472478
  24.6031448  66.0759137  36.9246050  24.2649960  65.9600202  36.0366585
  25.4721217  65.6750302  36.9047056  25.0851231  67.2293989  42.8832256
  25.0739872  66.8346787  42.0112759  25.2471871  66.4960062  43.4766027
  22.7314699  67.3907949  38.4212799  23.3278272  67.1663972  37.7069762
  22.7889671  66.6492695  39.0238247  22.3039728  64.8447385  26.2562990
  22.5565249  64.3228906  25.4946453  21.3664287  64.6813530  26.3589674
  27.3483011  63.8483163  34.0637733  28.1346100  63.4302586  33.7128150
  27.6121715  64.7529255  34.2319382  27.5193088  69.2856013  28.7626390
  26.8838921  69.3590640  29.4747295  27.1890494  69.8749612  28.0845469
  32.7491438  63.7858396  34.9670712  33.4816610  63.2157613  35.2008541
  31.9930793  63.3979997  35.4077218  22.0236017  66.7475491  28.4587365
  21.9072275  66.0720394  29.1268449  22.1338276  66.2607865  27.6419518
  24.3667558  66.2085638  32.1634054  24.0025765  65.6816259  32.8746976
  25.2234673  65.8184107  31.9900540  24.0073044  61.2375537  27.1595403
  24.1747447  62.1055774  27.5265874  23.8170214  61.4002819  26.2356692
  20.2160859  66.1506313  34.8597938  19.2911356  66.0182527  35.0675629
  20.4645272  66.9300532  35.3567880  30.1645521  62.2175057  36.5058671
  29.2562399  62.1490465  36.2117432  30.1133117  62.6947001  37.3340496
  23.9862265  63.6933195  28.1442070  23.8661891  64.1390246  28.9827550
  23.2914854  64.0418513  27.5855608  24.2386387  63.6364702  44.4493568
  23.4619721  64.1958622  44.4396433  24.8776950  64.1221485  44.9708438
  29.6847332  64.1654668  28.9722404  30.5965188  64.3982055  28.7970101
  29.1756979  64.7491712  28.4097482  22.4932760  66.4450156  44.0111535
  23.2347444  66.9835199  43.7346358  21.7869745  67.0716444  44.1683087
  27.9688099  68.5879296  42.6083696  28.3771455  68.1461706  41.8638329
  27.2465361  68.0131923  42.8617889  24.3219169  63.5251903  39.9817253
  25.1680364  63.9491316  40.1251902  24.2617807  62.8685527  40.6755816
  28.2916914  69.1480487  36.3635985  27.6625776  69.3126201  35.6612053
  27.9042576  69.5622096  37.1346949  32.1706146  70.0834924  33.7180349
  31.4857184  70.4633826  33.1677382  32.2549995  70.6930251  34.4512297
  27.4718615  61.1856271  41.6398427  27.2279546  61.9398332  41.1032703
  27.7478545  61.5641619  42.4745674  29.4257077  67.7294883  40.3175693
  29.6373973  68.3726643  39.6410074  29.3786826  66.8957200  39.8497623
  27.0283306  60.3412704  37.2212265  26.1667785  60.6393958  37.5129002
  27.0545741  60.5583103  36.2893297  22.7813762  65.0078047  30.4375635
  23.4837805  65.4599091  30.9049562  22.4494390  64.3661866  31.0655529
  21.2294123  63.5989804  44.8126845  20.5992784  64.2806085  45.0462242
  21.1230211  63.4872885  43.8679983  16.5239096  63.2661600  35.7392769
  15.7338150  63.5219128  35.2632880  17.0150343  64.0809938  35.8444810
  30.5402905  70.6066839  38.4898050  31.3620349  70.2047026  38.2080732
  30.5365308  70.5035073  39.4414166  18.4753841  63.6306179  32.6976246
  17.6785004  63.7424873  33.2159741  18.2479433  63.9692831  31.8317136
  14.8076799  63.5192090  38.1707760  15.0584837  64.4039100  38.4365336
  15.3436347  63.3396692  37.3982852  38.6308898  66.9505587  34.8383021
  37.8772607  66.3812985  34.6827026  38.7656440  66.9168252  35.7853656
  20.5074866  57.9010570  47.1752096  20.1141812  57.3476768  47.8499740
  21.3241006  58.2121148  47.5658613  23.4242827  59.3168449  44.7672352
  24.1652540  59.9175602  44.6876815  23.6560750  58.5746086  44.2090395
  18.5684165  64.5024816  43.0450582  18.4537680  63.6010073  43.3457681
  17.7128683  64.7488513  42.6935399  27.3350273  65.3358163  27.5509069
  26.8196896  66.1062767  27.7897457  27.0627581  64.6623299  28.1742131
  24.9197384  60.1807863  32.6094308  24.0638980  59.7914714  32.4299946
  25.3324335  60.2599824  31.7494093  26.4496530  57.7154207  37.0085867
  25.9461326  57.6784342  36.1953673  26.7427137  58.6246949  37.0682524
  22.6939416  57.7992936  36.0152049  23.5592413  57.6035745  35.6557939
  22.7616925  57.5703288  36.9421406  32.3084547  68.0890517  29.4862243
  31.5313990  67.7501677  29.0417405  32.9876028  68.0943140  28.8117208
  27.1236576  63.2085255  29.3768850  26.8186711  63.5231404  30.2278994
  28.0767018  63.2866675  29.4196183  30.5475854  67.5624499  36.1428851
  29.8899528  68.2523760  36.2308979  31.3516253  67.9520931  36.4862837
  20.3001735  60.0295144  33.3868416  20.8745487  59.8070326  32.6541609
  20.8872718  60.0983839  34.1397017  29.3581313  65.9168871  34.1932792
  29.8713194  66.5498863  34.6954502  30.0082536  65.3170067  33.8276153
  20.6271322  62.0599605  27.4064301  19.7908635  62.3974292  27.7273576
  20.4876092  61.9248585  26.4691438  22.6024403  56.9036393  32.1143485
  21.9488815  56.5885410  31.4900100  22.5604877  56.2812134  32.8403308
  23.7135608  67.1855688  24.0296777  22.8062670  66.9544942  24.2287926
  24.2106640  66.3893308  24.2170759  25.8362143  63.3918327  36.4391133
  24.9184705  63.6133274  36.2812821  26.2522287  63.4664637  35.5802840
  26.6197191  64.7909742  31.5693813  27.3669010  65.3031140  31.2600935
  26.8888781  64.4693795  32.4298207  24.8923841  67.2868283  28.5520768
  23.9835061  67.0027316  28.6493237  24.9218925  67.7067362  27.6924074
  29.0676028  61.8266859  33.5512603  28.3298785  61.3144245  33.8822845
  29.3202802  61.3867240  32.7395879  15.4612012  65.0073797  32.5335970
  15.2636412  64.4143158  31.8087036  14.9058676  64.7026008  33.2511909
  23.4408735  64.8996904  34.6530563  23.4957345  63.9470740  34.5773039
  22.6299937  65.0556343  35.1371861  24.5899929  68.8277027  25.8908846
  24.1519359  68.1112886  25.4314483  25.3310370  69.0553142  25.3293938
  21.3801095  63.5173964  32.4120942  20.5668961  63.8168134  32.8186134
  21.8760089  63.1229652  33.1295424  26.9775307  63.9815788  41.2435836
  27.3324695  64.2087261  42.1030301  27.6247438  64.3134165  40.6213091
  32.7073044  67.1034224  31.9485165  32.5690942  67.2935820  31.0206354
  32.3509263  67.8653607  32.4053216  20.8715170  61.0892319  38.0282177
  21.5114549  60.9481078  37.3305140  20.0392701  60.8026832  37.6520779
  32.7342424  69.1710751  36.9596436  33.1678930  69.0786040  37.8079490
  33.4474004  69.1468251  36.3216452  17.9558237  64.5337831  30.2176922
  17.0255825  64.4722287  30.4346884  18.0515709  64.0113784  29.4213563
  17.8743786  61.0592644  32.8055164  18.1350604  61.9737977  32.6964324
  18.6960959  60.5917087  32.9551776  19.3468712  62.4730401  39.9753988
  20.0191765  62.2647763  39.3266637  18.5198498  62.2752487  39.5359220
  33.5957973  69.2134452  39.4929322  33.7893863  70.1180262  39.7388597
  33.4958591  68.7541871  40.3267907  25.2494284  59.0992342  41.9919649
  24.6022199  59.7982292  41.8984125  26.0195299  59.5328486  42.3595897
  28.6573082  69.3641194  45.0670202  28.5058588  69.1351746  44.1500286
  28.6477761  70.3211796  45.0801547  25.4258418  66.9373107  40.0516469
  26.3550478  67.0884267  39.8785436  25.0049448  67.0257128  39.1965115
  19.7496209  65.7473004  40.7356425  19.6116007  65.0153243  41.3367964
  20.6601133  65.6581904  40.4540613  28.7111157  67.6861409  25.4840904
  28.0940327  66.9608237  25.3873956  28.2427645  68.4470769  25.1407978
  22.3778510  65.4592964  40.2240105  23.0878128  64.8186156  40.1826723
  22.3347818  65.7105858  41.1466286  21.0907444  62.4458181  42.0435744
  20.5544801  61.9948920  42.6957341  20.5024152  62.5804090  41.3006209
  20.5009703  61.9046833  24.6062208  19.6239169  61.7835634  24.2424455
  20.9767456  61.1132911  24.3541097  30.3682696  70.3599901  41.3760664
  29.4809474  70.0225823  41.4987063  30.9381247  69.6282932  41.6129429
  16.8246565  61.5814189  39.1288739  16.7404754  60.9739859  38.3939149
  16.0029271  62.0723207  39.1298235  26.9970279  60.0667753  34.4958934
  27.4938978  59.3137715  34.1760004  26.2257260  60.1032069  33.9302143
  34.8500036  65.7708118  36.1377225  34.8389912  66.6532834  35.7671158
  33.9817416  65.4179669  35.9431762  28.0800059  68.8239440  32.0697357
  27.1456338  68.9440902  31.9002062  28.2576728  67.9211907  31.8057367
  23.5805248  62.2085136  34.2230618  23.2103035  61.6556176  34.9111524
  24.0764340  61.6043269  33.6705619  31.4672611  64.6656759  32.6047391
  31.9333063  65.4984751  32.5307694  31.9180111  64.2001741  33.3092650
  29.4389274  57.0337346  36.6438293  28.5252353  57.2641573  36.8120500
  29.8682375  57.1175790  37.4952325  29.2095732  65.2227238  39.1438187
  28.5567182  65.4703146  38.4890640  29.5876112  64.4091376  38.8100664
  25.2583305  65.9647049  45.6304224  24.5823942  65.8641178  46.3006599
  26.0810939  65.8086263  46.0940221  18.9770581  59.6189126  40.4683725
  19.0411908  60.4803957  40.0561122  18.9137701  59.0063128  39.7356083
  18.4522854  61.6912259  44.1156759  19.0794893  61.3089336  44.7294283
  17.5950773  61.4726461  44.4812451  15.2288396  63.4988688  30.0475114
  15.5241838  62.5899366  29.9942167  14.3276432  63.4776428  29.7256116
  18.7582643  61.5744685  36.0302662  18.0369229  62.1880652  35.8910136
  19.5475899  62.1102449  35.9519308  21.5608957  58.9099111  42.3043314
  22.0843359  59.1561408  43.0669623  21.3421290  59.7419146  41.8846451
  16.9576238  61.1802786  30.1714439  16.6288944  60.3000165  29.9889545
  17.3115609  61.1250454  31.0590828  20.0718061  61.4675756  30.5389917
  20.4114134  61.9961677  29.8168525  20.5190182  61.8056162  31.3148483
  22.7661502  59.8512806  39.9892985  22.4258322  59.0520619  40.3913664
  22.0600508  60.1514517  39.4169818  23.4177974  56.9362119  38.4420308
  24.2404043  56.4622597  38.3199198  23.6616037  57.7152602  38.9418994
  22.0586208  59.9650377  28.7383209  22.7794571  60.3431630  28.2346926
  21.4351512  60.6839254  28.8418187  26.2017331  60.6695526  29.6741542
  26.4180946  61.5520164  29.3730370  25.7211398  60.2781740  28.9447184
  20.9416553  63.6281239  36.2512286  20.7961133  63.9421542  37.1436568
  20.4641756  64.2466140  35.6983185  22.8012936  60.6183787  36.2993176
  22.7874504  59.7224881  35.9625474  23.5185364  60.6254451  36.9331462
  24.6539066  61.0521128  38.3446303  24.3956844  61.9738198  38.3430634
  24.1224107  60.6551562  39.0346767  22.2049831  59.4998168  31.5680746
  22.3265743  58.5714814  31.7671633  21.9151874  59.5136854  30.6559061
  25.0741022  57.1853078  34.7047466  25.0962719  57.2492411  33.7499445
  25.4909081  56.3457587  34.8987972  35.4524646  66.9208338  32.7426688
  35.8955792  66.1715663  32.3445812  34.5751156  66.9118474  32.3600420
  16.2028237  65.2956480  42.0830104  15.4609973  65.4439115  42.6694735
  15.8820981  65.5564746  41.2196854  32.4851851  70.9238385  29.7520618
  33.0103175  71.2625657  29.0269938  32.3974203  69.9885400  29.5683752
  21.6890911  61.0130165  45.7770678  21.7379066  61.8892288  45.3948448
  22.2313425  60.4707558  45.2042322  32.2943632  68.4063755  42.3704544
  32.3441637  68.2413762  43.3120067  32.1857555  67.5391014  41.9802425
  29.5847394  64.3894683  43.6863851  30.4857257  64.2501147  43.3947849
  29.6595369  64.5549137  44.6262028  23.9190199  61.7661537  42.5317037
  23.0493509  62.0595103  42.2599626  24.1549680  62.3501982  43.2524301
  33.7961829  70.8260696  42.6146566  33.5046637  71.1890677  43.4510027
  33.1833960  70.1127704  42.4359898  34.9957511  68.3913576  35.1349136
  35.8304402  68.8303380  35.2986696  35.1316640  67.9152229  34.3157382
  32.0449017  65.9493311  41.0826624  32.5203138  66.1420957  40.2745475
  31.1214582  66.0052497  40.8370007  26.6229233  57.9841154  40.0482458
  27.1411177  58.7202181  39.7228946  26.2684366  58.2905148  40.8829217
  18.2028171  62.8445835  28.1643863  17.5097416  62.9190190  27.5083899
  17.9579923  62.0806179  28.6865380  30.7450686  62.8259071  39.3154929
  31.6968109  62.9257168  39.3367153  30.5754136  62.0337339  39.8253014
  28.7665065  59.9114654  39.5014330  28.1714997  60.1919667  38.8060819
  28.4814762  60.4008555  40.2731071  33.2238764  66.0465191  38.4297229
  33.1915084  65.1081191  38.6156913  33.8339387  66.1249227  37.6963054
  25.0622094  64.9161243  24.4724433  26.0081199  64.7867452  24.5412851
  24.6836339  64.1775905  24.9493861  33.3733252  62.8376234  38.4755512
  32.8572301  62.0534691  38.2885441  34.2573201  62.5094951  38.6402032
  31.0343979  56.5817250  34.4351325  30.8368800  56.2732338  35.3194657
  31.6443685  57.3078888  34.5649255  39.0415313  67.1081197  37.5703266
  39.7718702  66.8466485  38.1310969  38.4322259  66.3709919  37.6105334
  37.1230611  65.2489060  38.1677717  36.3963774  65.1145025  37.5594208
  36.7077897  65.5565889  38.9734435  24.9460787  68.9678990  45.9325090
  25.8663796  69.1457589  46.1265136  24.9110370  68.0235035  45.7804789
  23.2465012  62.8411220  24.4079318  22.3396467  62.5444333  24.4842032
  23.5240993  62.5441038  23.5413604  14.1642952  64.1617583  34.8578365
  13.8445736  63.3082891  34.5652739  13.6176380  64.3766161  35.6136332
  24.8627077  57.3848110  30.5623559  24.0527806  57.0395195  30.9378806
  25.5511494  57.0755653  31.1511171  26.7917626  56.4626156  32.1847856
  27.3448664  56.8821610  32.8437879  27.0287712  55.5361904  32.2270812
  22.8150725  62.4513230  47.9650620  22.7147452  63.4007587  47.8962711
  22.5972267  62.1231469  47.0926690  22.0163796  59.6998155  24.5491297
  22.8782960  60.0253053  24.8087115  22.2014140  58.9129651  24.0364363
  30.1696433  58.5726682  31.6926520  29.5895102  59.2311486  31.3104573
  29.9032365  57.7504026  31.2813938  28.6199999  57.9731739  33.8947841
  29.1199777  58.0848274  33.0862160  29.2635607  57.6692792  34.5348649
  22.6781995  65.8810369  46.7815682  22.1949077  66.6810729  46.9879571
  22.7642934  65.8918314  45.8283126  28.9521311  60.7326772  30.7482869
  28.0647166  61.0176423  30.5303063  29.3675300  60.5720535  29.9010146
  32.3035847  60.7573293  34.4637208  33.0796237  61.2469745  34.7361825
  31.5783981  61.1831347  34.9209077  28.9262334  66.2481308  30.9633159
  28.8697536  66.7049859  30.1240791  29.4790677  65.4871992  30.7856002
  32.7367140  62.0371040  31.7883278  32.4804075  61.6367675  32.6191486
  32.1120008  62.7514834  31.6633417  37.0479478  64.7767113  34.2954570
  36.4879036  64.8460302  35.0686132  36.4422982  64.6008098  33.5754066
  29.6597114  67.4386089  28.2585688  29.6045918  67.2730361  27.3174132
  29.0343169  68.1462122  28.4147878  14.4489629  62.6754153  42.0847110
  15.0948492  62.1653107  42.5734335  14.2406780  63.4122835  42.6590535
  18.7887120  59.8221771  46.1822124  19.6518581  59.4658575  46.3925449
  18.2152530  59.4835665  46.8697529  41.1110613  72.8271888  39.4265321
  40.7793937  73.6967299  39.2026536  40.5156226  72.5108172  40.1059351
  38.2093744  70.6741469  39.0436634  37.8658014  71.5643111  38.9675745
  38.5772707  70.4843127  38.1806219  40.0081410  69.9335028  34.1454372
  40.3140287  69.0732392  33.8580287  40.7334015  70.5252649  33.9453366
  40.2783028  72.3629264  36.6438293  39.3646108  72.5933491  36.8120500
  40.7076130  72.4467708  37.4952325  35.9134776  72.5144996  34.7047466
  35.9356473  72.5784329  33.7499445  36.3302835  71.6749504  34.8987972
  37.7135582  69.7333354  35.5683354  37.9937336  69.0656544  36.1943781
  38.4986189  69.9262450  35.0558018  41.8737733  71.9109167  34.4351325
  41.6762555  71.6024255  35.3194657  42.4837439  72.6370806  34.5649255
  35.7020832  72.7140027  30.5623559  34.8921560  72.3687112  30.9378806
  36.3905249  72.4047571  31.1511171  37.6311380  71.7918074  32.1847856
  38.1842419  72.2113527  32.8437879  37.8681466  70.8653822  32.2270812
  41.0090187  73.9018599  31.6926520  40.4288856  74.5603403  31.3104573
  40.7426120  73.0795944  31.2813938  39.4593754  73.3023657  33.8947841
  39.9593532  73.4140191  33.0862160  40.1029361  72.9984710  34.5348649
  37.6239113  68.8628892  32.0916943  36.8571509  68.3087379  32.2373625
  38.0349818  68.9350761  32.9531095   6.1154234  12.4709996  23.7129832
   6.7532644  12.3516744  23.0093172   5.9975077  13.4190840  23.7717784
   2.9243941  12.4237425  23.6491357   2.5862452  12.3078489  22.7611892
   3.7933709  12.0228590  23.6292363   3.4063724  13.5772276  29.6077562
   3.3952364  13.1825075  28.7358066   3.5684363  12.8438349  30.2011334
   1.0527192  13.7386237  25.1458106   1.6490764  13.5142259  24.4315069
   1.1102163  12.9970982  25.7483554   5.6695503  10.1961450  20.7883040
   6.4558592   9.7780873  20.4373457   5.9334207  11.1007543  20.9564688
  11.0703930  10.1336684  21.6916019  11.8029102   9.5635900  21.9253848
  10.3143286   9.7458284  22.1322524   5.0860870  16.0470804  25.5506540
   4.7861593  16.9495842  25.4422347   4.7411929  15.7802987  26.4027693
   8.4858014   8.5653344  23.2303977   7.5774891   8.4968752  22.9362738
   8.4345610   9.0425289  24.0585803   2.5598880   9.9842989  31.1738875
   1.7832214  10.5436910  31.1641739   3.1989443  10.4699772  31.6953745
  10.3519660   6.7669782  25.0081851   9.7094040   7.0602315  24.3621646
   9.8474589   6.6522703  25.8135048   6.2900591  14.9357583  29.3329003
   6.6983947  14.4939994  28.5883635   5.5677853  14.3610211  29.5863196
   6.6129406  15.4958774  23.0881292   5.9838269  15.6604488  22.3857360
   6.2255068  15.9100383  23.8592256  10.4918638  16.4313212  20.4425656
   9.8069676  16.8112113  19.8922689  10.5762487  17.0408538  21.1757603
   5.7931107   7.5334558  28.3643734   5.5492039   8.2876619  27.8278009
   6.0691037   7.9119906  29.1990981   7.7469570  14.0773171  27.0420999
   7.9586465  14.7204931  26.3655380   7.6999318  13.2435487  26.5742929
   2.1657368  15.2333182  20.3531377   2.6295714  15.5120885  19.5635999
   1.9014166  14.3316627  20.1704468   8.8615398  16.9545126  25.2143357
   9.6832841  16.5525313  24.9326038   8.8577800  16.8513360  26.1659472
   2.6272001  16.5029169  27.3704067   2.6916434  16.9649577  28.2062239
   1.9182925  15.8726534  27.4986377  16.9521391  13.2983875  21.5628328
  16.1985099  12.7291273  21.4072332  17.0868932  13.2646539  22.5098963
   2.3420019  18.1697277  17.2383047   2.2065693  19.0148813  17.6667895
   2.8829831  18.3716555  16.4748981   3.9688495  18.7920843  31.3683389
   3.5252349  18.0057222  31.0504294   4.6305709  18.9799994  30.7027280
   6.0669733  19.0723643  29.3964791   6.0488208  19.8932524  28.9045060
   6.9889653  18.9477719  29.6214932   2.5242787  16.5867773  30.2388299
   3.0571124  15.8256061  30.0087607   1.9956868  16.2941425  30.9812454
  10.6297039  14.4368805  16.2107549   9.8526482  14.0979964  15.7662711
  11.3088520  14.4421428  15.5362514   8.8688346  13.9102786  22.8674157
   8.2112020  14.6002047  22.9554286   9.6728745  14.2999218  23.2108144
   7.6793805  12.2647159  20.9178099   8.1925687  12.8977150  21.4199809
   8.3295029  11.6648354  20.5521459   4.9416179  22.2431483  13.6738770
   4.2677878  22.5463180  14.2823728   5.3282001  23.0460563  13.3244227
   4.1574636   9.7396614  23.1636440   3.2397197   9.9611561  23.0058128
   4.5734779   9.8142925  22.3048147   8.4455601  17.2453160  19.0457242
   7.9917928  16.4044070  19.1022432   7.8149568  17.8814558  19.3832022
   6.8888540  19.0829657  19.9807060   7.1811515  19.6434714  19.2619426
   7.3987161  19.3758218  20.7360219   1.7621228  11.2475191  21.3775870
   1.8169837  10.2949027  21.3018346   0.9512430  11.4034630  21.8617168
   1.8522165  19.8610008  21.0700513   1.8098344  20.0870854  20.1409045
   2.7684864  19.6273382  21.2186314   5.2987799  10.3294075  27.9681142
   5.6537187  10.5565548  28.8275608   5.9459930  10.6612452  27.3458398
  11.0285536  13.4512511  18.6730471  10.8903435  13.6414107  17.7451661
  10.6721755  14.2131894  19.1298522  11.0554916  15.5189038  23.6841743
  11.4891422  15.4264327  24.5324797  11.7686496  15.4946539  23.0461759
   4.7882811  19.1191132  25.2174843   4.8419833  19.6882069  25.9852559
   3.9197592  19.2893017  24.8528881  11.9170465  15.5612739  26.2174628
  12.1106355  16.4658549  26.4633903  11.8171083  15.1020158  27.0513213
   6.9785574  15.7119482  31.7915509   6.8271080  15.4830033  30.8745593
   6.9690253  16.6690083  31.8046854   3.7470910  13.2851394  26.7761775
   4.6762970  13.4362554  26.6030743   3.3261940  13.3735415  25.9210422
   2.5459242  17.3102059  24.5460313   2.4070328  16.9420843  25.4186251
   1.7573838  17.8249698  24.3744271   3.1407394  22.4111155  15.8885849
   3.3159150  21.9399198  16.7031472   2.4540182  23.0376921  16.1167110
   4.0964457  16.6883661  21.9349151   3.7614290  16.6484431  22.8306801
   3.5968403  16.0228377  21.4619561   0.6991002  11.8071251  26.9485412
   1.4090621  11.1664443  26.9072030   0.6560310  12.0584146  27.8711592
   8.6877781  18.7438604  29.8691991   8.6290327  18.0597824  29.2022574
   9.0897299  19.4857594  29.4172617   8.6895188  16.7078188  28.1005970
   7.8021967  16.3704110  28.2232369   9.2593739  15.9761219  28.3374736
   2.2196341  21.3679640  25.0667214   2.1466513  22.1734612  25.5786518
   1.7773734  21.5671606  24.2415235   2.0086121  20.6051410  18.5770035
   1.2253643  21.1473091  18.6708260   2.7078866  21.1225390  18.9764276
  13.1712528  12.1186405  22.8622532  13.1602405  13.0011121  22.4916465
  12.3029908  11.7657956  22.6677069   4.6795025  21.2666474  27.2225372
   5.3922997  21.9013939  27.1501274   4.1885053  21.3630340  26.4065374
   6.4012552  15.1717727  18.7942664   5.4668830  15.2919190  18.6247368
   6.5789220  14.2690194  18.5302674   9.7885103  11.0135046  19.3292698
  10.2545555  11.8463038  19.2553001  10.2392604  10.5480028  20.0337957
   7.8561334  17.3578868  16.3278850   8.1321178  17.2435462  17.2372724
   6.9865833  16.9596353  16.2891023   7.5308224  11.5705525  25.8683493
   6.8779675  11.8181433  25.2135946   7.9088604  10.7569664  25.5345971
   4.4915398  21.6065219  19.9711664   4.6737793  20.7886874  20.4339416
   5.3148384  21.8232911  19.5336554   4.8257564  20.5333404  17.2326712
   5.3545330  20.0225858  16.6196874   5.0885783  20.2175934  18.0972245
   3.5795797  12.3125336  32.3549531   2.9036434  12.2119466  33.0251906
   4.4023431  12.1564550  32.8185528   2.3218580  23.6192264  26.5907147
   2.8736888  23.7823885  27.3556232   2.6624774  24.2096702  25.9187171
   7.1729455  18.4453521  32.4455801   7.7169359  19.0583480  31.9510756
   6.5916299  19.0033100  32.9622814   5.4586968  21.5674239  23.5770829
   5.3338107  20.7663979  23.0681774   6.1166059  22.0620433  23.0884799
   7.5221876  19.3683259  25.2050379   6.5752211  19.2488611  25.1328705
   7.8704649  18.4805758  25.2876640   4.5268309  19.1635976  21.4054731
   4.3793272  18.2352683  21.5862301   5.3521803  19.1856066  20.9211806
   8.1302431  19.9864534  22.4919604   9.0548979  19.7807396  22.3544055
   7.9617734  19.7380936  23.4008945   7.9197747  20.5050202  17.8481695
   8.0934625  19.9396624  17.0955548   8.4126638  21.3051097  17.6661185
  13.7737138  13.2686625  19.4671995  14.2168284  12.5193950  19.0691118
  12.8963649  13.2596761  19.0845727   8.9072920  19.8216966  14.9478593
   9.6023824  20.4423659  15.1665908   9.2496070  18.9712318  15.2230971
  10.8064343  17.2716672  16.4765924  11.3315667  17.6103945  15.7515244
  10.7186695  16.3363687  16.2929059   2.4684392  21.1850745  28.6055801
   2.7771518  20.9399892  29.4778500   3.2659874  21.3897384  28.1174671
   2.4905004  23.3388655  20.8361177   2.0509994  22.8465034  21.5294034
   3.2413121  22.7961623  20.5953253  10.4958249  17.9049575  31.7817122
   9.7053793  17.8873714  31.2421622  10.2591604  18.4437869  32.5366159
  10.6156124  14.7542042  29.0949851  10.6654129  14.5892049  30.0365374
  10.5070047  13.8869301  28.7047732   7.9059886  10.7372970  30.4109157
   8.8069749  10.5979435  30.1193155   7.9807861  10.9027425  31.3507335
  12.1174321  17.1738983  29.3391872  11.8259129  17.5368964  30.1755333
  11.5046452  16.4605992  29.1605204  13.3170003  14.7391863  21.8594443
  14.1516895  15.1781667  22.0232003  13.4529132  14.2630516  21.0402688
  10.3661509  12.2971598  27.8071930  10.8415631  12.4899244  26.9990782
   9.4427074  12.3530784  27.5615314   9.0663178   9.1737358  26.0400236
  10.0180601   9.2735456  26.0612460   8.8966628   8.3815627  26.5498320
   7.0877558   6.2592941  26.2259637   6.4927490   6.5397954  25.5306125
   6.8027254   6.7486842  26.9976378   6.2185048  20.2115868  14.9862269
   7.1515721  20.1461430  15.1895145   6.1308261  21.0472135  14.5276802
  11.5451256  12.3943478  25.1542536  11.5127576  11.4559478  25.3402219
  12.1551879  12.4727514  24.4208360  11.6945744   9.1854521  25.2000819
  11.1784793   8.4012978  25.0130748  12.5785693   8.8573238  25.3647338
  17.3627806  13.4559485  24.2948572  18.0931194  13.1944773  24.8556276
  16.7534751  12.7188207  24.3350640  15.4443103  11.5967347  24.8923024
  14.7176266  11.4623312  24.2839515  15.0290390  11.9044176  25.6979742
   3.2673279  15.3157277  32.6570397   4.1876289  15.4935876  32.8510443
   3.2322862  14.3713322  32.5050096   0.9994487  12.2288656  33.5060988
   0.5161569  13.0289016  33.7124877   1.0855426  12.2396601  32.5528432
  10.6248339   7.1051580  21.1882514  11.4008729   7.5948033  21.4607131
   9.8996473   7.5309634  21.6454384  13.0620898   7.8179199  22.2456455
  13.6565389   7.5774935  21.5349763  13.1347481   7.0986330  22.8729991
  11.0579633   8.3849327  18.5128585  10.8016567   7.9845963  19.3436793
  10.4332501   9.0993121  18.3878724  15.3691970  11.1245400  21.0199876
  14.8091528  11.1938590  21.7931438  14.7635474  10.9486385  20.2999373
   5.2955513  16.0913288  34.3084557   6.1646673  16.2653940  33.9471192
   4.8162265  16.9107705  34.1860287  16.9547989  27.8001914  23.7129832
  17.5926399  27.6808662  23.0093172  16.8368832  28.7482758  23.7717784
  13.7637695  27.7529342  23.6491357  13.4256207  27.6370407  22.7611892
  14.6327463  27.3520507  23.6292363   9.6224511  29.6064819  19.6388248
   9.0589376  29.5154756  18.8704535   9.5076906  28.7864723  20.1190740
  14.2457478  28.9064194  29.6077562  14.2346119  28.5116992  28.7358066
  14.4078118  28.1730267  30.2011334   7.1688943  31.1016010  22.4772468
   7.9610235  30.7606835  22.0618767   7.4085593  31.2110985  23.3974621
  15.2024070  33.2735786  14.9502713  14.5512049  33.8589867  14.5636726
  15.9968432  33.8041981  15.0097750   9.1279697  30.3624924  15.3489847
   9.9010573  29.8153911  15.2102723   9.4805096  31.2269173  15.5604308
  10.9664739  31.6901306  28.5556746  10.6754605  32.5946937  28.4403413
  11.6021724  31.7317833  29.2700816  11.8920946  29.0678154  25.1458106
  12.4884518  28.8434177  24.4315069  11.9495918  28.3262900  25.7483554
  11.4645975  26.5217590  12.9808297  11.7171495  25.9999111  12.2191760
  10.5270534  26.3583735  13.0834980  16.5089257  25.5253368  20.7883040
  17.2952347  25.1072791  20.4373457  16.7727962  26.4299460  20.9564688
  16.6799335  30.9626218  15.4871697  16.0445168  31.0360845  16.1992602
  16.3496741  31.5519817  14.8090776  11.1842263  28.4245696  15.1832672
  11.0678521  27.7490599  15.8513756  11.2944523  27.9378070  14.3664825
  13.5273804  27.8855843  18.8879361  13.1632012  27.3586464  19.5992283
  14.3840920  27.4954312  18.7145846  19.4323105  19.1750175  26.1510627
  19.1006430  20.0445586  25.9271842  18.8368718  18.8586459  26.8304658
  13.1679291  22.9145742  13.8840710  13.3353694  23.7825979  14.2511181
  12.9776460  23.0773024  12.9601999   9.3767106  27.8276518  21.5843244
   8.4517602  27.6952732  21.7920936   9.6251519  28.6070737  22.0813187
  19.3251768  23.8945261  23.2303977  18.4168646  23.8260670  22.9362738
  19.2739364  24.3717206  24.0585803  13.1468512  25.3703400  14.8687376
  13.0268137  25.8160451  15.7072857  12.4521101  25.7188718  14.3100915
   6.7375917  27.4709792  22.4187033   6.8668298  27.7244271  23.3326445
   6.0573368  28.0637500  22.0991688  10.9075404  38.1407042  18.5177508
  10.8299434  39.0914867  18.5965988  10.3037048  37.7952914  19.1752434
  13.3992634  25.3134907  31.1738875  12.6225968  25.8728827  31.1641739
  14.0383197  25.7991690  31.6953745  21.1913415  22.0961700  25.0081851
  20.5487795  22.3894233  24.3621646  20.6868343  21.9814620  25.8135048
  18.8453578  25.8424873  15.6967710  19.7571434  26.0752260  15.5215408
  18.3363225  26.4261917  15.1342789  11.6539006  28.1220360  30.7356842
  12.3953691  28.6605404  30.4591665  10.9475992  28.7486649  30.8928393
  17.1294346  30.2649501  29.3329003  17.5377702  29.8231911  28.5883635
  16.4071607  29.6902128  29.5863196  13.4825416  25.2022108  26.7062560
  14.3286611  25.6261521  26.8497209  13.4224054  24.5455732  27.4001123
  16.6324861  22.8626476  28.3643734  16.3885793  23.6168537  27.8278009
  16.9084792  23.2411824  29.1990981  16.1889553  22.0182909  23.9457571
  15.3274032  22.3164163  24.2374309  16.2151988  22.2353308  23.0138604
  13.0051122  30.5625100  20.3531377  13.4689468  30.8412803  19.5635999
  12.7407921  29.6608544  20.1704468   9.8975204  30.1096581  23.2911140
  10.4676561  30.5383850  22.6528625  10.4883315  29.8279166  23.9895326
  11.9420009  26.6848252  17.1620942  12.6444052  27.1369296  17.6294868
  11.6100637  26.0432071  17.7900835  10.3900370  25.2760009  31.5372152
   9.7599031  25.9576289  31.7707548  10.2836458  25.1643090  30.5925290
   5.6845342  24.9431805  22.4638076   4.8944396  25.1989333  21.9878186
   6.1756590  25.7580143  22.5690116   7.6360088  25.3076384  19.4221552
   6.8391251  25.4195078  19.9405048   7.4085680  25.6463036  18.5562443
  13.4665755  31.8321087  27.3704067  13.5310188  32.2941494  28.2062239
  12.7576679  31.2018452  27.4986377   3.9683045  25.1962295  24.8953066
   4.2191084  26.0809305  25.1610642   4.5042594  25.0166897  24.1228158
  13.1813773  33.4989195  17.2383047  13.0459448  34.3440730  17.6667895
  13.7223586  33.7008472  16.4748981   9.6681113  19.5780774  33.8997403
   9.2748058  19.0246973  34.5745047  10.4847253  19.8891353  34.2903920
   6.6343171  31.0164633  17.8110972   7.1467691  31.8107883  17.9616537
   7.2865883  30.3190923  17.7444574   8.4438055  34.1330389  19.8933726
   8.6204684  35.0548354  19.7054709   9.2394889  33.8188808  20.3228105
  12.5849074  20.9938654  31.4917659  13.3258787  21.5945807  31.4122122
  12.8166997  20.2516291  30.9335702   7.7290412  26.1795021  29.7695889
   7.6143927  25.2780278  30.0702988   6.8734930  26.4258718  29.4180705
  14.8082250  34.1212761  31.3683389  14.3646104  33.3349140  31.0504294
  15.4699463  34.3091912  30.7027280   9.5669371  35.6508563  25.8944068
  10.1176796  35.5225626  25.1221062   8.7280847  35.9503452  25.5438961
  13.3636542  31.9159691  30.2388299  13.8964879  31.1547979  30.0087607
  12.8350623  31.6233342  30.9812454  16.5306237  17.0219756  25.7681941
  16.1870506  17.9121398  25.6921051  16.8985199  16.8321414  24.9051526
   4.5992087  29.3453287  18.5870543   5.4367309  29.7550295  18.3704251
   4.7770355  28.4052729  18.5570737  16.4956519  27.0128368  14.2754376
  15.9803143  27.7832972  14.5142763  16.2233828  26.3393504  14.8987437
  14.0803630  21.8578068  19.3339614  13.2245227  21.4684919  19.1545253
  14.4930582  21.9370029  18.4739400  15.6102777  19.3924412  23.7331174
  15.1067573  19.3554547  22.9198979  15.9033384  20.3017154  23.7927831
  11.8545663  19.4763141  22.7397356  12.7198660  19.2805950  22.3803245
  11.9223172  19.2473493  23.6666713  21.4690794  29.7660722  16.2107549
  20.6920236  29.4271882  15.7662711  22.1482275  29.7713345  15.5362514
  16.2842823  24.8855460  16.1014157  15.9792958  25.2001609  16.9524300
  17.2373265  24.9636880  16.1441490  14.7289254  31.0445683  17.7507111
  14.2010616  30.3098443  17.4380349  14.2276757  31.8220359  17.5047079
   9.4607982  21.7065349  20.1113723  10.0351734  21.4840531  19.3786916
  10.0478965  21.7754044  20.8642324  18.5187559  27.5939076  20.9178099
  19.0319441  28.2269068  21.4199809  19.1688783  26.9940272  20.5521459
   9.7877569  23.7369810  14.1309608   8.9514881  24.0744497  14.4518883
   9.6482339  23.6018790  13.1936745  11.7630650  18.5806598  18.8388792
  11.1095062  18.2655615  18.2145407  11.7211124  17.9582339  19.5648615
  12.8741855  28.8625893  10.7542084  11.9668916  28.6315147  10.9533233
  13.3712887  28.0663513  10.9416066  15.7809934  37.5723400  13.6738770
  15.1071632  37.8755097  14.2823728  16.1675755  38.3752481  13.3244227
  14.9968390  25.0688532  23.1636440  14.0790952  25.2903479  23.0058128
  15.4128534  25.1434842  22.3048147  15.7803438  26.4679947  18.2939120
  16.5275257  26.9801345  17.9846242  16.0495027  26.1464000  19.1543513
  14.0530088  28.9638488  15.2766074  13.1441307  28.6797521  15.3738544
  14.0825172  29.3837567  14.4169381  18.2282275  23.5037064  20.2757909
  17.4905032  22.9914450  20.6068152  18.4809049  23.0637445  19.4641186
  18.3293902  16.2813316  20.8699678  18.6352779  15.4210679  20.5825594
  19.0546507  16.8730936  20.6698672   4.6218258  26.6844002  19.2581276
   4.4242658  26.0913363  18.5332343   4.0664922  26.3796212  19.9757215
  12.6014982  26.5767109  21.3775870  12.6563592  25.6240945  21.3018346
  11.7906184  26.7326548  21.8617168  13.7506176  30.5047232  12.6154153
  13.3125606  29.7883091  12.1559790  14.4916617  30.7323347  12.0539244
  10.5407342  25.1944168  19.1366248   9.7275208  25.4938339  19.5431441
  11.0366336  24.7999857  19.8540731  12.6915920  35.1901925  21.0700513
  12.6492099  35.4162772  20.1409045  13.6078619  34.9565300  21.2186314
  16.1381554  25.6585993  27.9681142  16.4930941  25.8857466  28.8275608
  16.7853685  25.9904370  27.3458398  10.0321417  22.7662524  24.7527483
  10.6720796  22.6251283  24.0550447   9.1998947  22.4797037  24.3766085
  10.8081721  32.0664954  20.8662476  11.6022319  31.5715275  20.6645051
  10.0973413  31.5382818  20.5030181   7.1164484  26.2108036  16.9422229
   6.1862072  26.1492492  17.1592191   7.2121956  25.6883989  16.1458870
   7.0350033  22.7362849  19.5300470   7.2956851  23.6508182  19.4209631
   7.8567206  22.2687292  19.6797083   8.5074959  24.1500606  26.6999295
   9.1798012  23.9417968  26.0511944   7.6804745  23.9522692  26.2604527
  14.4100531  20.7762547  28.7164956  13.7628446  21.4752497  28.6229432
  15.1801546  21.2098691  29.0841204  14.5864665  28.6143312  26.7761775
  15.5156725  28.7654472  26.6030743  14.1655695  28.7027333  25.9210422
  13.3852997  32.6393976  24.5460313  13.2464082  32.2712761  25.4186251
  12.5967593  33.1541616  24.3744271  13.9801149  37.7403073  15.8885849
  14.1552904  37.2691116  16.7031472  13.2933937  38.3668839  16.1167110
  14.9358212  32.0175579  21.9349151  14.6008044  31.9776349  22.8306801
  14.4362158  31.3520295  21.4619561   8.9102456  27.4243209  27.4601732
   8.7722254  26.6923448  28.0613271   9.8207379  27.3352109  27.1785920
  17.8717403  29.3631613  12.2086210  17.2546574  28.6378442  12.1119263
  17.4033892  30.1240974  11.8653285  11.5384756  27.1363168  26.9485412
  12.2484375  26.4956361  26.9072030  11.4954065  27.3876063  27.8711592
  10.2513690  24.1228386  28.7681051   9.7151047  23.6719125  29.4202647
   9.6630399  24.2574295  28.0251515   8.5462234  40.8892436  22.6625710
   8.7858832  41.5210960  23.3404728   7.7031430  40.5380476  22.9491069
   9.6615949  23.5817038  11.3307515   8.7845416  23.4605839  10.9669761
  10.1373702  22.7903116  11.0786403   1.1818090  28.3694197  21.4249022
   1.8689129  28.0555928  20.8370037   1.0266218  29.2735562  21.1516273
   5.9852812  23.2584394  25.8534045   5.9011000  22.6510064  25.1184455
   5.1635518  23.7493412  25.8543542  13.0590096  36.6971558  25.0667214
  12.9860267  37.5026530  25.5786518  12.6167489  36.8963524  24.2415235
  12.8479875  35.9343328  18.5770035  12.0647397  36.4765008  18.6708260
  13.5472621  36.4517308  18.9764276  16.1576526  21.7437958  21.2204241
  16.6545225  20.9907920  20.9005311  15.3863507  21.7802274  20.6547450
  15.5188779  36.5958392  27.2225372  16.2316752  37.2305857  27.1501274
  15.0278808  36.6922258  26.4065374  17.2406306  30.5009645  18.7942664
  16.3062585  30.6211107  18.6247368  17.4182975  29.5982112  18.5302674
  12.7411494  23.8855341  20.9475925  12.3709282  23.3326381  21.6356831
  13.2370587  23.2813474  20.3950925  20.6278858  26.3426964  19.3292698
  21.0939310  27.1754956  19.2553001  21.0786358  25.8771946  20.0337957
  10.5700693  34.3452836  28.0430943  11.2710152  34.9789319  28.1960337
  10.0995808  34.6867567  27.2826582  18.6955089  32.6870785  16.3278850
  18.9714933  32.5727380  17.2372724  17.8259587  32.2888270  16.2891023
  18.5995520  18.7107551  23.3683599  17.6858600  18.9411778  23.5365806
  19.0288622  18.7945995  24.2197632  14.4189552  27.6417254  32.3549531
  13.7430189  27.5411383  33.0251906  15.2417186  27.4856468  32.8185528
   6.1668411  33.8789191  24.9762046   6.7521848  33.1332879  25.1089950
   5.9693249  34.1893147  25.8598710   9.0207066  36.9140438  19.9924488
   8.3517441  37.3986566  19.5088528   8.8819936  37.1609658  20.9067867
  13.1612335  38.9484182  26.5907147  13.7130643  39.1115803  27.3556232
  13.5018528  39.5388619  25.9187171   8.1376828  21.2959331  27.1929031
   8.2018154  22.1574162  26.7806429   8.0743948  20.6833333  26.4601390
   7.6129100  23.3682464  30.8402065   8.2401139  22.9859541  31.4539590
   6.7557019  23.1496666  31.2057758   4.3894643  25.1758893  16.7720420
   4.6848084  24.2669571  16.7187474   3.4882679  25.1546632  16.4501423
   7.9188890  23.2514890  22.7547969   7.1975476  23.8650857  22.6155442
   8.7082146  23.7872654  22.6764615  10.7215204  20.5869316  29.0288621
  11.2449606  20.8331613  29.7914930  10.5027537  21.4189351  28.6091758
   6.1182485  22.8572991  16.8959745   5.7895191  21.9770370  16.7134851
   6.4721856  22.8020659  17.7836135  15.3662064  34.4927893  21.4054731
  15.2187026  33.5644601  21.5862301  16.1915557  34.5147984  20.9211806
   9.2324308  23.1445960  17.2635223   9.5720380  23.6731882  16.5413831
   9.6796428  23.4826367  18.0393790  11.9267749  21.5283011  26.7138291
  11.5864569  20.7290824  27.1158971  11.2206755  21.8284722  26.1415124
  12.5784221  18.6132324  25.1665614  13.4010290  18.1392802  25.0444505
  12.8222284  19.3922807  25.6664300  11.2192455  21.6420582  15.4628516
  11.9400818  22.0201835  14.9592233  10.5957759  22.3609459  15.5663494
  15.3623578  22.3465731  16.3986848  15.5787192  23.2290369  16.0975676
  14.8817645  21.9551944  15.6692490  10.1022799  25.3051444  22.9757593
   9.9567380  25.6191747  23.8681874   9.6248003  25.9236345  22.4228491
  11.9619182  22.2953992  23.0238482  11.9480751  21.3995086  22.6870780
  12.6791610  22.3024656  23.6576768  13.8145313  22.7291332  25.0691610
  13.5563091  23.6508403  25.0675940  13.2830353  22.3321767  25.7592074
   4.5768462  27.8456789  25.9145254   4.0321930  28.6216597  26.0465528
   5.4547811  28.1927593  25.7564375  11.3656078  21.1768373  18.2926053
  11.4871989  20.2485019  18.4916940  11.0758121  21.1907058  17.3804368
  14.2347269  18.8623283  21.4292772  14.2568965  18.9262616  20.4744752
  14.6515328  18.0227792  21.6233279  19.7466674  35.1508884  14.9478593
  20.4417579  35.7715577  15.1665908  20.0889824  34.3004235  15.2230971
   5.3634483  26.9726685  28.8075411   4.6216219  27.1209320  29.3940041
   5.0427228  27.2334951  27.9442160  13.3078146  36.5142663  28.6055801
  13.6165273  36.2691810  29.4778500  14.1053628  36.7189302  28.1174671
  13.3298758  38.6680573  20.8361177  12.8903748  38.1756951  21.5294034
  14.0806875  38.1253540  20.5953253   5.8091097  34.8592114  20.8385805
   6.6349117  34.5595885  20.4584449   5.4585149  34.0899736  21.2875594
  10.7772630  34.2118582  22.9083479  10.1552640  33.5489287  22.6085707
  11.4477497  34.2379714  22.2257127   4.0099702  32.7778440  21.7974739
   3.1731610  32.3500614  21.6158740   3.9823348  32.9710883  22.7345530
  10.8497158  22.6900370  32.5015985  10.8985313  23.5662493  32.1193755
  11.3919672  22.1477763  31.9287628  10.3386137  32.7622505  16.3841940
  10.4874258  33.4457970  15.7308612  11.1452581  32.7427595  16.8991395
  18.7453641  26.0664888  30.4109157  19.6463504  25.9271352  30.1193155
  18.8201615  26.2319342  31.3507335  13.0796446  23.4431742  29.2562344
  12.2099756  23.7365308  28.9844932  13.3155927  24.0272187  29.9769607
   8.0938770  28.7887683  17.3903009   7.8484812  27.8850013  17.5883219
   8.2634685  28.7904833  16.4482487  15.7835480  19.6611359  26.7727764
  16.3017424  20.3972386  26.4474253  15.4290613  19.9675352  27.6074523
   7.3634418  24.5216040  14.8889170   6.6703663  24.5960395  14.2329206
   7.1186170  23.7576384  15.4110687  16.0348074  16.0811642  22.2928661
  16.3149828  15.4134831  22.9189087  16.8198681  16.2740737  21.7803325
  13.8381543  35.2570636  13.8553687  13.2655510  35.8760823  13.4024159
  14.4114336  35.8069997  14.3893609  17.9271312  21.5884859  26.2259637
  17.3321244  21.8689872  25.5306125  17.6421009  22.0778760  26.9976378
  19.6866819  34.8573656  11.9466217  19.6080451  34.5233520  12.8401975
  20.5076486  35.3495424  11.9457689  14.2228341  26.5931448  11.1969740
  15.1687446  26.4637656  11.2658158  13.8442586  25.8546110  11.6739168
  20.1950226  18.2587454  21.1596631  19.9975047  17.9502543  22.0439963
  20.8049931  18.9849093  21.2894561  14.1067034  30.6449195  32.6570397
  15.0270043  30.8227794  32.8510443  14.0716617  29.7005240  32.5050096
  12.4071258  24.5181425  11.1324625  11.5002714  24.2214537  11.2087338
  12.6847239  24.2211243  10.2658911   3.3249199  25.8387788  21.5823671
   3.0051983  24.9853096  21.2898045   2.7782627  26.0536366  22.3381639
   7.1029106  28.5550229  25.2993178   7.3215116  29.4867337  25.3181212
   7.5154880  28.1958204  26.0847982  14.0233324  19.0618314  17.2868866
  13.2134052  18.7165399  17.6624112  14.7117741  18.7525858  17.8756478
  15.9523872  18.1396361  18.9093163  16.5054911  18.5591815  19.5683186
  16.1893959  17.2132109  18.9516119  11.9756972  24.1283435  34.6895927
  11.8753698  25.0777792  34.6208018  11.7578514  23.8001674  33.8171997
   3.1937459  29.4590700  23.5516793   2.5000930  29.0444652  23.0386747
   3.9410450  29.5011236  22.9550212  19.3302679  20.2496886  18.4171827
  18.7501348  20.9081690  18.0349879  19.0638612  19.4274231  18.0059244
  17.7806246  19.6501944  20.6193147  18.2806024  19.7618479  19.8107466
  18.4241854  19.3462997  21.2593956  11.8388242  27.5580574  33.5060988
  11.3555323  28.3580934  33.7124877  11.9249181  27.5688519  32.5528432
   5.1074201  29.3908953  21.4282808   5.0844889  29.4896641  20.4764691
   5.4174838  30.2374104  21.7499974   7.7661579  31.4485108  25.5429422
   8.7204833  31.4169051  25.4759354   7.5674103  30.9875732  26.3579648
   8.3560961  30.0186225  28.1100220   9.1753850  30.5130303  28.1335057
   8.6297769  29.1018193  28.0817787  18.1127557  22.4096977  17.4728175
  17.2253412  22.6946627  17.2548370  18.5281547  22.2490740  16.6255452
  21.4642094  22.4343498  21.1882514  22.2402484  22.9239950  21.4607131
  20.7390228  22.8601552  21.6454384   6.1211808  36.9904728  22.5599620
   5.9866276  36.2305129  21.9937618   5.7043870  37.7145628  22.0928409
  17.2570771  32.1741652  11.5676195  17.9606621  32.3791654  12.1833851
  16.5333420  32.7418413  11.8325279  18.0868581  27.9251513  17.6878465
  18.0303783  28.3820064  16.8486098  18.6396924  27.1642197  17.5101308
  21.8973387  23.7141245  18.5128585  21.6410321  23.3137880  19.3436793
  21.2726255  24.4285039  18.3878724   9.2780934  37.8874045  22.7718063
   9.1613318  38.8319477  22.6696753   8.4573380  37.5847607  23.1603862
  19.1657468  32.6124181  13.6174655  20.0003072  32.1805379  13.4352130
  19.0041811  32.4406194  14.5451550  18.8203361  29.1156294  14.9830995
  18.7652164  28.9500565  14.0419439  18.1949416  29.8232327  15.1393184
   3.6095876  24.3524358  28.8092417   4.2554739  23.8423312  29.2979642
   3.4013027  25.0893040  29.3835842  16.1349268  31.4205206  34.3084557
  17.0040427  31.5945858  33.9471192  15.6556019  32.2399623  34.1860287
  12.1299486  18.6164403  14.5616313  12.1178156  19.5606243  14.7184584
  13.0222908  18.4334548  14.2675774  10.3035448  38.5402307  25.9873991
  11.2062695  38.5725917  26.3040486  10.0772818  37.6102758  26.0020327
  12.0589050  37.2933293  22.6484070  11.1084681  37.2935155  22.5348442
  12.3621536  36.5466028  22.1320104  15.9451605  15.2107180  18.8162250
  15.1784001  14.6565666  18.9618932  16.3562310  15.2829048  19.6776401
   7.9493366  21.4991975  32.9067431   8.8124828  21.1428780  33.1170756
   7.3758777  21.1605870  33.5942835  20.4618265  44.9356736  19.6388248
  19.8983131  44.8446673  18.8704535  20.3470660  44.1156641  20.1190740
  19.9673451  45.6916841  15.3489847  20.7404327  45.1445828  15.2102723
  20.3198850  46.5561091  15.5604308  22.3039729  41.8509507  12.9808297
  22.5565250  41.3291029  12.2191760  21.3664288  41.6875653  13.0834980
  22.0236018  43.7537613  15.1832672  21.9072276  43.0782517  15.8513756
  22.1338278  43.2669987  14.3664825  24.3667559  43.2147760  18.8879361
  24.0025766  42.6878381  19.5992283  25.2234675  42.8246229  18.7145846
  17.5769671  42.8001709  22.4187033  17.7062053  43.0536188  23.3326445
  16.8967123  43.3929417  22.0991688  16.5239097  40.2723722  22.4638076
  15.7338151  40.5281251  21.9878186  17.0150344  41.0872060  22.5690116
  18.4753842  40.6368302  19.4221552  17.6785006  40.7486996  19.9405048
  18.2479435  40.9754954  18.5562443  14.8076800  40.5254213  24.8953066
  15.0584838  41.4101223  25.1610642  15.3436348  40.3458814  24.1228158
  17.4736925  46.3456550  17.8110972  17.9861446  47.1399801  17.9616537
  18.1259638  45.6482841  17.7444574  15.4385842  44.6745205  18.5870543
  16.2761064  45.0842213  18.3704251  15.6164110  43.7344647  18.5570737
  20.6271324  39.0661728  14.1309608  19.7908636  39.4036415  14.4518883
  20.4876093  38.9310708  13.1936745  23.7135609  44.1917811  10.7542084
  22.8062671  43.9607064  10.9533233  24.2106641  43.3955430  10.9416066
  26.6203688  52.9015318  13.6738770  25.9465387  53.2047015  14.2823728
  27.0069510  53.7044398  13.3244227  15.4612013  42.0135920  19.2581276
  15.2636413  41.4205281  18.5332343  14.9058677  41.7088130  19.9757215
  24.5899930  45.8339149  12.6154153  24.1519360  45.1175008  12.1559790
  25.3310371  46.0615264  12.0539244  17.9558239  41.5399954  16.9422229
  17.0255827  41.4784409  17.1592191  18.0515711  41.0175907  16.1458870
  24.8194903  53.0694991  15.8885849  24.9946659  52.5983034  16.7031472
  24.1327691  53.6960757  16.1167110  28.7111158  44.6923531  12.2086210
  28.0940329  43.9670359  12.1119263  28.2427646  45.4532891  11.8653285
  19.3855988  56.2184353  22.6625710  19.6252587  56.8502877  23.3404728
  18.5425185  55.8672393  22.9491069  20.5009704  38.9108955  11.3307515
  19.6239170  38.7897756  10.9669761  20.9767457  38.1195034  11.0786403
  12.0211844  43.6986115  21.4249022  12.7082884  43.3847845  20.8370037
  11.8659973  44.6027480  21.1516273  11.5979820  41.7786709  23.6966489
  11.6363920  41.2450299  24.4903607  11.0920113  41.2521914  23.0777466
  15.2288398  40.5050811  16.7720420  15.5241839  39.5961489  16.7187474
  14.3276433  40.4838550  16.4501423  15.4162216  43.1748706  25.9145254
  14.8715684  43.9508514  26.0465528  16.2941566  43.5219511  25.7564375
  16.6484852  50.1884031  20.8385805  17.4742871  49.8887803  20.4584449
  16.2978904  49.4191654  21.2875594  14.8493457  48.1070358  21.7974739
  14.0125365  47.6792532  21.6158740  14.8217102  48.3002801  22.7345530
  21.1779892  48.0914423  16.3841940  21.3268012  48.7749887  15.7308612
  21.9846335  48.0719513  16.8991395  18.9332525  44.1179601  17.3903009
  18.6878567  43.2141930  17.5883219  19.1028439  44.1196751  16.4482487
  18.2028172  39.8507958  14.8889170  17.5097417  39.9252313  14.2329206
  17.9579924  39.0868302  15.4110687  24.6775297  50.5862553  13.8553687
  24.1049264  51.2052740  13.4024159  25.2508091  51.1361915  14.3893609
  25.0622096  41.9223366  11.1969740  26.0081200  41.7929574  11.2658158
  24.6836341  41.1838028  11.6739168  23.2465013  39.8473342  11.1324625
  22.3396468  39.5506455  11.2087338  23.5240994  39.5503161  10.2658911
  14.1642953  41.1679706  21.5823671  13.8445738  40.3145014  21.2898045
  13.6176381  41.3828284  22.3381639  22.0163797  36.7060278  11.2736604
  22.8782961  37.0315176  11.5332421  22.2014142  35.9191774  10.7609670
  14.0331213  44.7882617  23.5516793  13.3394685  44.3736570  23.0386747
  14.7804204  44.8303154  22.9550212  15.9467956  44.7200871  21.4282808
  15.9238644  44.8188558  20.4764691  16.2568592  45.5666022  21.7499974
  16.9605562  52.3196646  22.5599620  16.8260030  51.5597047  21.9937618
  16.5437625  53.0437546  22.0928409  28.0964525  47.5033569  11.5676195
  28.8000376  47.7083572  12.1833851  27.3727174  48.0710331  11.8325279
  38.6335498  58.4585750  23.7129832  39.2713908  58.3392497  23.0093172
  38.5156341  59.4066593  23.7717784  35.4425204  58.4113178  23.6491357
  35.1043716  58.2954242  22.7611892  36.3114972  58.0104343  23.6292363
  31.3012020  60.2648654  19.6388248  30.7376885  60.1738591  18.8704535
  31.1864415  59.4448558  20.1190740  35.9244987  59.5648029  29.6077562
  35.9133628  59.1700828  28.7358066  36.0865627  58.8314102  30.2011334
  28.8476452  61.7599846  22.4772468  29.6397744  61.4190670  22.0618767
  29.0873102  61.8694821  23.3974621  36.8811579  63.9319622  14.9502713
  36.2299558  64.5173702  14.5636726  37.6755941  64.4625817  15.0097750
  30.8067206  61.0208759  15.3489847  31.5798082  60.4737746  15.2102723
  31.1592605  61.8853008  15.5604308  32.6452248  62.3485141  28.5556746
  32.3542114  63.2530772  28.4403413  33.2809233  62.3901669  29.2700816
  33.5708455  59.7261990  25.1458106  34.1672027  59.5018012  24.4315069
  33.6283427  58.9846735  25.7483554  33.1433484  57.1801425  12.9808297
  33.3959004  56.6582946  12.2191760  32.2058043  57.0167570  13.0834980
  38.3586844  61.6210054  15.4871697  37.7232677  61.6944680  16.1992602
  38.0284250  62.2103652  14.8090776  43.5885194  56.1212437  21.6916019
  44.3210365  55.5511653  21.9253848  42.8324549  55.7334037  22.1322524
  32.8629772  59.0829531  15.1832672  32.7466030  58.4074434  15.8513756
  32.9732032  58.5961905  14.3664825  35.2061313  58.5439678  18.8879361
  34.8419520  58.0170299  19.5992283  36.0628429  58.1538147  18.7145846
  37.6042133  62.0346557  25.5506540  37.3042857  62.9371595  25.4422347
  37.2593193  61.7678740  26.4027693  31.0554615  58.4860353  21.5843244
  30.1305111  58.3536568  21.7920936  31.3039028  59.2654573  22.0813187
  34.8256021  56.0287235  14.8687376  34.7055646  56.4744286  15.7072857
  34.1308609  56.3772553  14.3100915  28.4163426  58.1293627  22.4187033
  28.5455807  58.3828106  23.3326445  27.7360877  58.7221335  22.0991688
  32.5862913  68.7990877  18.5177508  32.5086943  69.7498702  18.5965988
  31.9824557  68.4536749  19.1752434  40.5241087  56.5008708  15.6967710
  41.4358943  56.7336095  15.5215408  40.0150734  57.0845753  15.1342789
  33.3326515  58.7804196  30.7356842  34.0741200  59.3189240  30.4591665
  32.6263501  59.4070485  30.8928393  38.8081855  60.9233336  29.3329003
  39.2165211  60.4815747  28.5883635  38.0859116  60.3485964  29.5863196
  39.1310670  61.4834527  23.0881292  38.5019532  61.6480241  22.3857360
  38.7436332  61.8976136  23.8592256  43.0099901  62.4188965  20.4425656
  42.3250940  62.7987866  19.8922689  43.0943751  63.0284291  21.1757603
  40.2650833  60.0648924  27.0420999  40.4767728  60.7080684  26.3655380
  40.2180581  59.2311240  26.5742929  34.6838631  61.2208935  20.3531377
  35.1476977  61.4996638  19.5635999  34.4195430  60.3192380  20.1704468
  31.5762713  60.7680417  23.2911140  32.1464070  61.1967685  22.6528625
  32.1670824  60.4863001  23.9895326  33.6207518  57.3432087  17.1620942
  34.3231561  57.7953131  17.6294868  33.2888146  56.7015906  17.7900835
  41.3796661  62.9420879  25.2143357  42.2014105  62.5401066  24.9326038
  41.3759064  62.8389113  26.1659472  29.3147597  55.9660219  19.4221552
  28.5178760  56.0778913  19.9405048  29.0873189  56.3046871  18.5562443
  35.1453264  62.4904922  27.3704067  35.2097697  62.9525330  28.2062239
  34.4364188  61.8602287  27.4986377  49.4702654  59.2859628  21.5628328
  48.7166362  58.7167026  21.4072332  49.6050195  59.2522292  22.5098963
  34.8601282  64.1573030  17.2383047  34.7246957  65.0024566  17.6667895
  35.4011095  64.3592308  16.4748981  28.3130680  61.6748468  17.8110972
  28.8255200  62.4691718  17.9616537  28.9653392  60.9774758  17.7444574
  30.1225564  64.7914224  19.8933726  30.2992193  65.7132189  19.7054709
  30.9182398  64.4772643  20.3228105  29.4077921  56.8378856  29.7695889
  29.2931436  55.9364113  30.0702988  28.5522439  57.0842553  29.4180705
  36.4869759  64.7796596  31.3683389  36.0433613  63.9932975  31.0504294
  37.1486972  64.9675747  30.7027280  31.2456880  66.3092398  25.8944068
  31.7964305  66.1809461  25.1221062  30.4068356  66.6087287  25.5438961
  38.5850997  65.0599396  29.3964791  38.5669472  65.8808277  28.9045060
  39.5070917  64.9353472  29.6214932  35.0424051  62.5743526  30.2388299
  35.5752388  61.8131814  30.0087607  34.5138132  62.2817178  30.9812454
  26.2779596  60.0037122  18.5870543  27.1154818  60.4134131  18.3704251
  26.4557864  59.0636564  18.5570737  38.1744028  57.6712203  14.2754376
  37.6590652  58.4416808  14.5142763  37.9021337  56.9977339  14.8987437
  43.1478303  60.4244558  16.2107549  42.3707745  60.0855717  15.7662711
  43.8269784  60.4297181  15.5362514  37.9630332  55.5439295  16.1014157
  37.6580467  55.8585444  16.9524300  38.9160774  55.6220715  16.1441490
  36.4076763  61.7029518  17.7507111  35.8798125  60.9682278  17.4380349
  35.9064266  62.4804195  17.5047079  41.3869609  59.8978539  22.8674157
  40.7293284  60.5877800  22.9554286  42.1910009  60.2874971  23.2108144
  31.4665078  54.3953646  14.1309608  30.6302390  54.7328332  14.4518883
  31.3269848  54.2602625  13.1936745  34.5529364  59.5209729  10.7542084
  33.6456425  59.2898982  10.9533233  35.0500396  58.7247348  10.9416066
  37.4597443  68.2307236  13.6738770  36.7859141  68.5338933  14.2823728
  37.8463264  69.0336316  13.3244227  36.6755899  55.7272367  23.1636440
  35.7578460  55.9487314  23.0058128  37.0916043  55.8018678  22.3048147
  37.4590947  57.1263783  18.2939120  38.2062766  57.6385180  17.9846242
  37.7282536  56.8047835  19.1543513  35.7317597  59.6222323  15.2766074
  34.8228816  59.3381356  15.3738544  35.7612681  60.0421402  14.4169381
  40.9636864  63.2328913  19.0457242  40.5099192  62.3919823  19.1022432
  40.3330831  63.8690311  19.3832022  39.4069804  65.0705410  19.9807060
  39.6992778  65.6310467  19.2619426  39.9168424  65.3633971  20.7360219
  26.3005767  57.3427838  19.2581276  26.1030167  56.7497198  18.5332343
  25.7452431  57.0380048  19.9757215  34.2802491  57.2350944  21.3775870
  34.3351101  56.2824780  21.3018346  33.4693693  57.3910383  21.8617168
  35.4293685  61.1631067  12.6154153  34.9913115  60.4466926  12.1559790
  36.1704126  61.3907182  12.0539244  32.2194851  55.8528004  19.1366248
  31.4062717  56.1522174  19.5431441  32.7153845  55.4583693  19.8540731
  34.3703429  65.8485761  21.0700513  34.3279608  66.0746607  20.1409045
  35.2866128  65.6149135  21.2186314  43.5466800  59.4388264  18.6730471
  43.4084698  59.6289860  17.7451661  43.1903018  60.2007647  19.1298522
  43.5736179  61.5064791  23.6841743  44.0072686  61.4140080  24.5324797
  44.2867760  61.4822292  23.0461759  32.4869230  62.7248790  20.8662476
  33.2809828  62.2299110  20.6645051  31.7760922  62.1966653  20.5030181
  37.3064074  65.1066885  25.2174843  37.3601096  65.6757822  25.9852559
  36.4378856  65.2768770  24.8528881  28.7951993  56.8691872  16.9422229
  27.8649581  56.8076327  17.1592191  28.8909465  56.3467824  16.1458870
  44.4351729  61.5488492  26.2174628  44.6287619  62.4534302  26.4633903
  44.3352347  61.0895911  27.0513213  39.4966837  61.6995235  31.7915509
  39.3452344  61.4705786  30.8745593  39.4871517  62.6565836  31.8046854
  36.2652174  59.2727147  26.7761775  37.1944234  59.4238307  26.6030743
  35.8443204  59.3611168  25.9210422  35.0640506  63.2977812  24.5460313
  34.9251591  62.9296596  25.4186251  34.2755102  63.8125451  24.3744271
  35.6588658  68.3986908  15.8885849  35.8340413  67.9274951  16.7031472
  34.9721446  69.0252674  16.1167110  36.6145721  62.6759414  21.9349151
  36.2795553  62.6360184  22.8306801  36.1149667  62.0104130  21.4619561
  30.5889965  58.0827044  27.4601732  30.4509763  57.3507283  28.0613271
  31.4994888  57.9935945  27.1785920  39.5504912  60.0215449  12.2086210
  38.9334083  59.2962277  12.1119263  39.0821401  60.7824809  11.8653285
  41.2059044  64.7314357  29.8691991  41.1471590  64.0473577  29.2022574
  41.6078563  65.4733347  29.4172617  31.3403458  54.2400873  11.3307515
  30.4632925  54.1189674  10.9669761  31.8161211  53.4486951  11.0786403
  41.2076451  62.6953941  28.1005970  40.3203230  62.3579863  28.2232369
  41.7775002  61.9636972  28.3374736  22.8605599  59.0278033  21.4249022
  23.5476638  58.7139763  20.8370037  22.7053727  59.9319397  21.1516273
  34.7377605  67.3555393  25.0667214  34.6647776  68.1610365  25.5786518
  34.2954998  67.5547359  24.2415235  34.5267384  66.5927163  18.5770035
  33.7434906  67.1348844  18.6708260  35.2260130  67.1101143  18.9764276
  45.6893792  58.1062158  22.8622532  45.6783668  58.9886874  22.4916465
  44.8211171  57.7533709  22.6677069  37.1976288  67.2542227  27.2225372
  37.9104261  67.8889692  27.1501274  36.7066317  67.3506093  26.4065374
  38.9193815  61.1593480  18.7942664  37.9850094  61.2794943  18.6247368
  39.0970484  60.2565947  18.5302674  34.4199003  54.5439176  20.9475925
  34.0496791  53.9910216  21.6356831  34.9158096  53.9397309  20.3950925
  42.3066367  57.0010799  19.3292698  42.7726819  57.8338791  19.2553001
  42.7573867  56.5355781  20.0337957  32.2488202  65.0036671  28.0430943
  32.9497661  65.6373154  28.1960337  31.7783317  65.3451402  27.2826582
  40.3742598  63.3454621  16.3278850  40.6502442  63.2311215  17.2372724
  39.5047096  62.9472106  16.2891023  40.0489488  57.5581278  25.8683493
  39.3960938  57.8057186  25.2135946  40.4269868  56.7445417  25.5345971
  37.0096662  67.5940972  19.9711664  37.1919056  66.7762627  20.4339416
  37.8329648  67.8108664  19.5336554  37.3438827  66.5209157  17.2326712
  37.8726594  66.0101611  16.6196874  37.6067047  66.2051687  18.0972245
  36.0977061  58.3001089  32.3549531  35.4217698  58.1995219  33.0251906
  36.9204695  58.1440303  32.8185528  27.8455920  64.5373026  24.9762046
  28.4309357  63.7916714  25.1089950  27.6480758  64.8476983  25.8598710
  30.6994575  67.5724273  19.9924488  30.0304950  68.0570401  19.5088528
  30.5607445  67.8193494  20.9067867  34.8399844  69.6068017  26.5907147
  35.3918152  69.7699638  27.3556232  35.1806037  70.1972455  25.9187171
  39.6910718  64.4329274  32.4455801  40.2350622  65.0459233  31.9510756
  39.1097563  64.9908853  32.9622814  26.0682152  55.8342728  16.7720420
  26.3635593  54.9253407  16.7187474  25.1670188  55.8130468  16.4501423
  37.9768231  67.5549992  23.5770829  37.8519370  66.7539732  23.0681774
  38.6347322  68.0496186  23.0884799  40.0403139  65.3559013  25.2050379
  39.0933475  65.2364364  25.1328705  40.3885912  64.4681511  25.2876640
  37.0449573  65.1511729  21.4054731  36.8974535  64.2228436  21.5862301
  37.8703066  65.1731819  20.9211806  30.9111817  53.8029796  17.2635223
  31.2507889  54.3315717  16.5413831  31.3583937  54.1410202  18.0393790
  40.6483695  65.9740287  22.4919604  41.5730242  65.7683149  22.3544055
  40.4798998  65.7256689  23.4008945  31.7810308  55.9635280  22.9757593
  31.6354889  56.2775583  23.8681874  31.3035512  56.5820180  22.4228491
  40.4379011  66.4925955  17.8481695  40.6115888  65.9272377  17.0955548
  40.9307902  67.2926850  17.6661185  26.2555971  58.5040624  25.9145254
  25.7109439  59.2800432  26.0465528  27.1335320  58.8511428  25.7564375
  46.2918402  59.2562378  19.4671995  46.7349548  58.5069703  19.0691118
  45.4144912  59.2472514  19.0845727  41.4254183  65.8092719  14.9478593
  42.1205088  66.4299412  15.1665908  41.7677333  64.9588071  15.2230971
  27.0421992  57.6310520  28.8075411  26.3003728  57.7793156  29.3940041
  26.7214737  57.8918786  27.9442160  43.3245606  63.2592425  16.4765924
  43.8496930  63.5979698  15.7515244  43.2367959  62.3239440  16.2929059
  34.9865655  67.1726498  28.6055801  35.2952781  66.9275645  29.4778500
  35.7841137  67.3773137  28.1174671  35.0086267  69.3264408  20.8361177
  34.5691257  68.8340787  21.5294034  35.7594384  68.7837376  20.5953253
  27.4878606  65.5175949  20.8385805  28.3136626  65.2179721  20.4584449
  27.1372658  64.7483571  21.2875594  32.4560139  64.8702417  22.9083479
  31.8340149  64.2073122  22.6085707  33.1265006  64.8963549  22.2257127
  25.6887211  63.4362275  21.7974739  24.8519119  63.0084450  21.6158740
  25.6610857  63.6294719  22.7345530  43.0139512  63.8925328  31.7817122
  42.2235056  63.8749467  31.2421622  42.7772867  64.4313622  32.5366159
  43.1337387  60.7417795  29.0949851  43.1835392  60.5767802  30.0365374
  43.0251311  59.8745054  28.7047732  32.0173646  63.4206341  16.3841940
  32.1661767  64.1041805  15.7308612  32.8240090  63.4011431  16.8991395
  40.4241150  56.7248723  30.4109157  41.3251013  56.5855188  30.1193155
  40.4989124  56.8903178  31.3507335  44.6355584  63.1614736  29.3391872
  44.3440393  63.5244717  30.1755333  44.0227716  62.4481745  29.1605204
  45.8351267  60.7267616  21.8594443  46.6698158  61.1657420  22.0232003
  45.9710395  60.2506269  21.0402688  42.8842773  58.2847351  27.8071930
  43.3596894  58.4774997  26.9990782  41.9608338  58.3406537  27.5615314
  29.7726279  59.4471518  17.3903009  29.5272321  58.5433848  17.5883219
  29.9422194  59.4488669  16.4482487  29.0421927  55.1799876  14.8889170
  28.3491172  55.2544231  14.2329206  28.7973679  54.4160219  15.4110687
  35.5169052  65.9154471  13.8553687  34.9443019  66.5344658  13.4024159
  36.0901845  66.4653833  14.3893609  38.7366311  66.1991621  14.9862269
  39.6696985  66.1337183  15.1895145  38.6489524  67.0347888  14.5276802
  44.0632519  58.3819231  25.1542536  44.0308839  57.4435232  25.3402219
  44.6733143  58.4603267  24.4208360  35.9015850  57.2515284  11.1969740
  36.8474955  57.1221492  11.2658158  35.5230095  56.5129946  11.6739168
  49.8809069  59.4435238  24.2948572  50.6112458  59.1820526  24.8556276
  49.2716015  58.7063960  24.3350640  47.9624366  57.5843100  24.8923024
  47.2357530  57.4499065  24.2839515  47.5471653  57.8919929  25.6979742
  35.7854543  61.3033030  32.6570397  36.7057552  61.4811629  32.8510443
  35.7504126  60.3589075  32.5050096  34.0858767  55.1765260  11.1324625
  33.1790223  54.8798373  11.2087338  34.3634748  54.8795078  10.2658911
  28.7816615  59.2134065  25.2993178  29.0002625  60.1451172  25.3181212
  29.1942389  58.8542039  26.0847982  24.8724968  60.1174535  23.5516793
  24.1788439  59.7028488  23.0386747  25.6197959  60.1595072  22.9550212
  41.0090188  50.9080722  18.4171827  40.4288857  51.5665526  18.0349879
  40.7426121  50.0858066  18.0059244  33.5175751  58.2164409  33.5060988
  33.0342832  59.0164769  33.7124877  33.6036690  58.2272354  32.5528432
  26.7861710  60.0492789  21.4282808  26.7632398  60.1480476  20.4764691
  27.0962347  60.8957940  21.7499974  29.4449088  62.1068944  25.5429422
  30.3992342  62.0752886  25.4759354  29.2461612  61.6459568  26.3579648
  30.0348470  60.6770060  28.1100220  30.8541359  61.1714139  28.1335057
  30.3085278  59.7602028  28.0817787  39.7915066  53.0680812  17.4728175
  38.9040921  53.3530463  17.2548370  40.2069056  52.9074576  16.6255452
  43.1429603  53.0927333  21.1882514  43.9189993  53.5823786  21.4607131
  42.4177737  53.5185387  21.6454384  45.5802161  53.8054952  22.2456455
  46.1746652  53.5650688  21.5349763  45.6528745  53.0862083  22.8729991
  27.7999317  67.6488563  22.5599620  27.6653785  66.8888964  21.9937618
  27.3831379  68.3729463  22.0928409  38.9358280  62.8325487  11.5676195
  39.6394130  63.0375489  12.1833851  38.2120929  63.4002249  11.8325279
  39.7656090  58.5835348  17.6878465  39.7091292  59.0403900  16.8486098
  40.3184433  57.8226033  17.5101308  43.5760896  54.3725080  18.5128585
  43.3197830  53.9721716  19.3436793  42.9513764  55.0868874  18.3878724
  47.8873234  57.1121153  21.0199876  47.3272792  57.1814343  21.7931438
  47.2816737  56.9362138  20.2999373  30.9568443  68.5457880  22.7718063
  30.8400827  69.4903313  22.6696753  30.1360889  68.2431442  23.1603862
  40.8444977  63.2708016  13.6174655  41.6790581  62.8389215  13.4352130
  40.6829320  63.0990030  14.5451550  40.4990870  59.7740129  14.9830995
  40.4439673  59.6084401  14.0419439  39.8736925  60.4816162  15.1393184
  37.8136777  62.0789041  34.3084557  38.6827936  62.2529694  33.9471192
  37.3343528  62.8983458  34.1860287  31.9822957  69.1986142  25.9873991
  32.8850204  69.2309753  26.3040486  31.7560327  68.2686593  26.0020327
  33.7376559  67.9517129  22.6484070  32.7872190  67.9518990  22.5348442
  34.0409045  67.2049863  22.1320104  49.4729252  73.7877667  23.7129832
  50.1107662  73.6684415  23.0093172  49.3550095  74.7358511  23.7717784
  46.2818959  73.7405095  23.6491357  45.9437470  73.6246160  22.7611892
  47.1508727  73.3396260  23.6292363  46.7638742  74.8939947  29.6077562
  46.7527382  74.4992745  28.7358066  46.9259381  74.1606020  30.2011334
  44.4102210  75.0553907  25.1458106  45.0065782  74.8309930  24.4315069
  44.4677181  74.3138653  25.7483554  49.0270521  71.5129121  20.7883040
  49.8133610  71.0948544  20.4373457  49.2909225  72.4175213  20.9564688
  54.4278948  71.4504354  21.6916019  55.1604120  70.8803571  21.9253848
  53.6718304  71.0625955  22.1322524  51.9504368  65.1625928  26.1510627
  51.6187693  66.0321339  25.9271842  51.3549982  64.8462212  26.8304658
  41.8948369  73.8152271  21.5843244  40.9698866  73.6828485  21.7920936
  42.1432783  74.5946490  22.0813187  51.8433032  69.8821015  23.2303977
  50.9349909  69.8136423  22.9362738  51.7920627  70.3592959  24.0585803
  45.9173897  71.3010660  31.1738875  45.1407232  71.8604580  31.1641739
  46.5564461  71.7867443  31.6953745  53.7094678  68.0837453  25.0081851
  53.0669058  68.3769986  24.3621646  53.2049607  67.9690373  25.8135048
  44.1720270  74.1096113  30.7356842  44.9134954  74.6481157  30.4591665
  43.4657255  74.7362402  30.8928393  46.0006679  71.1897861  26.7062560
  46.8467875  71.6137274  26.8497209  45.9405317  70.5331485  27.4001123
  49.1506125  68.8502229  28.3643734  48.9067057  69.6044290  27.8278009
  49.4266055  69.2287577  29.1990981  48.7070817  68.0058662  23.9457571
  47.8455296  68.3039916  24.2374309  48.7333251  68.2229061  23.0138604
  42.9081634  71.2635762  31.5372152  42.2780294  71.9452042  31.7707548
  42.8017721  71.1518843  30.5925290  38.2026606  70.9307558  22.4638076
  37.4125660  71.1865086  21.9878186  38.6937853  71.7455896  22.5690116
  40.1541351  71.2952137  19.4221552  39.3572515  71.4070831  19.9405048
  39.9266944  71.6338789  18.5562443  36.4864309  71.1838048  24.8953066
  36.7372347  72.0685058  25.1610642  37.0223857  71.0042650  24.1228158
  42.1862376  65.5656527  33.8997403  41.7929322  65.0122726  34.5745047
  43.0028517  65.8767106  34.2903920  45.1030337  66.9814407  31.4917659
  45.8440051  67.5821560  31.4122122  45.3348260  66.2392044  30.9335702
  40.2471675  72.1670774  29.7695889  40.1325190  71.2656031  30.0702988
  39.3916193  72.4134471  29.4180705  49.0487500  63.0095510  25.7681941
  48.7051770  63.8997151  25.6921051  49.4166463  62.8197167  24.9051526
  46.5984894  67.8453821  19.3339614  45.7426490  67.4560672  19.1545253
  47.0111846  67.9245782  18.4739400  48.1284041  65.3800165  23.7331174
  47.6248836  65.3430300  22.9198979  48.4214647  66.2892907  23.7927831
  44.3726926  65.4638894  22.7397356  45.2379923  65.2681703  22.3803245
  44.4404435  65.2349246  23.6666713  41.9789246  67.6941102  20.1113723
  42.5532997  67.4716284  19.3786916  42.5660228  67.7629797  20.8642324
  44.2811913  64.5682351  18.8388792  43.6276326  64.2531368  18.2145407
  44.2392387  63.9458092  19.5648615  47.5149654  71.0564285  23.1636440
  46.5972215  71.2779232  23.0058128  47.9309797  71.1310595  22.3048147
  50.7463539  69.4912817  20.2757909  50.0086295  68.9790203  20.6068152
  50.9990312  69.0513198  19.4641186  50.8475166  62.2689069  20.8699678
  51.1534043  61.4086432  20.5825594  51.5727771  62.8606689  20.6698672
  37.1399522  72.6719755  19.2581276  36.9423922  72.0789116  18.5332343
  36.5846186  72.3671965  19.9757215  45.1196246  72.5642862  21.3775870
  45.1744855  71.6116698  21.3018346  44.3087448  72.7202301  21.8617168
  43.0588606  71.1819922  19.1366248  42.2456471  71.4814092  19.5431441
  43.5547600  70.7875610  19.8540731  48.6562817  71.6461746  27.9681142
  49.0112205  71.8733219  28.8275608  49.3034948  71.9780123  27.3458398
  42.5502680  68.7538277  24.7527483  43.1902060  68.6127036  24.0550447
  41.7180211  68.4672790  24.3766085  39.6345748  72.1983789  16.9422229
  38.7043336  72.1368245  17.1592191  39.7303220  71.6759742  16.1458870
  39.5531297  68.7238602  19.5300470  39.8138114  69.6383935  19.4209631
  40.3748469  68.2563045  19.6797083  41.0256222  70.1376359  26.6999295
  41.6979275  69.9293721  26.0511944  40.1986009  69.9398445  26.2604527
  46.9281794  66.7638300  28.7164956  46.2809709  67.4628250  28.6229432
  47.6982809  67.1974444  29.0841204  47.1045928  74.6019065  26.7761775
  48.0337988  74.7530225  26.6030743  46.6836958  74.6903086  25.9210422
  41.4283719  73.4118962  27.4601732  41.2903517  72.6799201  28.0613271
  42.3388643  73.3227862  27.1785920  44.0566020  73.1238921  26.9485412
  44.7665638  72.4832114  26.9072030  44.0135328  73.3751816  27.8711592
  42.7694954  70.1104139  28.7681051  42.2332311  69.6594878  29.4202647
  42.1811662  70.2450048  28.0251515  38.5034075  69.2460147  25.8534045
  38.4192264  68.6385817  25.1184455  37.6816782  69.7369165  25.8543542
  48.6757789  67.7313711  21.2204241  49.1726489  66.9783673  20.9005311
  47.9044771  67.7678027  20.6547450  45.2592758  69.8731094  20.9475925
  44.8890545  69.3202134  21.6356831  45.7551850  69.2689227  20.3950925
  51.1176784  64.6983304  23.3683599  50.2039864  64.9287531  23.5365806
  51.5469885  64.7821748  24.2197632  50.8883242  72.8873196  25.8683493
  50.2354693  73.1349104  25.2135946  51.2663622  72.0737334  25.5345971
  46.9370815  73.6293007  32.3549531  46.2611452  73.5287136  33.0251906
  47.7598449  73.4732221  32.8185528  40.6558091  67.2835084  27.1929031
  40.7199418  68.1449915  26.7806429  40.5925212  66.6709086  26.4601390
  40.1310364  69.3558217  30.8402065  40.7582403  68.9735294  31.4539590
  39.2738283  69.1372419  31.2057758  36.9075907  71.1634646  16.7720420
  37.2029348  70.2545324  16.7187474  36.0063942  71.1422385  16.4501423
  40.4370154  69.2390643  22.7547969  39.7156739  69.8526610  22.6155442
  41.2263409  69.7748407  22.6764615  43.2396467  66.5745069  29.0288621
  43.7630869  66.8207366  29.7914930  43.0208801  67.4065104  28.6091758
  38.6363748  68.8448744  16.8959745  38.3076454  67.9646123  16.7134851
  38.9903119  68.7896412  17.7836135  41.7505571  69.1321713  17.2635223
  42.0901644  69.6607635  16.5413831  42.1977692  69.4702120  18.0393790
  44.4449012  67.5158764  26.7138291  44.1045833  66.7166577  27.1158971
  43.7388019  67.8160475  26.1415124  45.0965484  64.6008077  25.1665614
  45.9191553  64.1268555  25.0444505  45.3403548  65.3798560  25.6664300
  43.7373719  67.6296335  15.4628516  44.4582081  68.0077588  14.9592233
  43.1139023  68.3485212  15.5663494  42.6204063  71.2927197  22.9757593
  42.4748644  71.6067500  23.8681874  42.1429266  71.9112098  22.4228491
  44.4800446  68.2829745  23.0238482  44.4662015  67.3870839  22.6870780
  45.1972874  68.2900409  23.6576768  46.3326576  68.7167085  25.0691610
  46.0744354  69.6384156  25.0675940  45.8011617  68.3197520  25.7592074
  43.8837342  67.1644126  18.2926053  44.0053253  66.2360772  18.4916940
  43.5939384  67.1782812  17.3804368  46.7528532  64.8499036  21.4292772
  46.7750229  64.9138369  20.4744752  47.1696591  64.0103545  21.6233279
  37.8815747  72.9602438  28.8075411  37.1397483  73.1085073  29.3940041
  37.5608491  73.2210704  27.9442160  43.3678421  68.6776123  32.5015985
  43.4166577  69.5538246  32.1193755  43.9100935  68.1353516  31.9287628
  51.2634904  72.0540641  30.4109157  52.1644767  71.9147105  30.1193155
  51.3382879  72.2195095  31.3507335  45.5977710  69.4307495  29.2562344
  44.7281019  69.7241061  28.9844932  45.8337190  70.0147940  29.9769607
  48.3016744  65.6487112  26.7727764  48.8198687  66.3848139  26.4474253
  47.9471876  65.9551106  27.6074523  39.8815681  70.5091793  14.8889170
  39.1884926  70.5836148  14.2329206  39.6367433  69.7452137  15.4110687
  48.5529338  62.0687395  22.2928661  48.8331091  61.4010584  22.9189087
  49.3379945  62.2616490  21.7803325  52.4238196  70.4905029  26.0400236
  53.3755619  70.5903126  26.0612460  52.2541646  69.6983297  26.5498320
  50.4452575  67.5760612  26.2259637  49.8502508  67.8565625  25.5306125
  50.1602272  68.0654513  26.9976378  55.0520762  70.5022192  25.2000819
  54.5359811  69.7180649  25.0130748  55.9360711  70.1740908  25.3647338
  52.7131489  64.2463207  21.1596631  52.5156310  63.9378296  22.0439963
  53.3231195  64.9724846  21.2894561  46.6248297  76.6324948  32.6570397
  47.5451307  76.8103547  32.8510443  46.5897880  75.6880993  32.5050096
  35.8430462  71.8263541  21.5823671  35.5233247  70.9728849  21.2898045
  35.2963890  72.0412119  22.3381639  46.5414588  65.0494068  17.2868866
  45.7315316  64.7041152  17.6624112  47.2299004  64.7401611  17.8756478
  48.4705136  64.1272114  18.9093163  49.0236174  64.5467568  19.5683186
  48.7075222  63.2007862  18.9516119  44.4938235  70.1159188  34.6895927
  44.3934962  71.0653545  34.6208018  44.2759777  69.7877427  33.8171997
  51.8483943  66.2372639  18.4171827  51.2682612  66.8957444  18.0349879
  51.5819876  65.4149984  18.0059244  50.2987509  65.6377697  20.6193147
  50.7987288  65.7494232  19.8107466  50.9423117  65.3338750  21.2593956
  44.3569505  73.5456327  33.5060988  43.8736587  74.3456687  33.7124877
  44.4430444  73.5564272  32.5528432  53.9823357  68.4219251  21.1882514
  54.7583747  68.9115703  21.4607131  53.2571491  68.8477305  21.6454384
  56.4195916  69.1346870  22.2456455  57.0140407  68.8942606  21.5349763
  56.4922499  68.4154001  22.8729991  36.1277139  70.3400111  28.8092417
  36.7736003  69.8299065  29.2979642  35.9194290  71.0768793  29.3835842
  44.6480749  64.6040156  14.5616313  44.6359419  65.5481996  14.7184584
  45.5404171  64.4210301  14.2675774  48.4632869  61.1982933  18.8162250
  47.6965265  60.6441419  18.9618932  48.8743574  61.2704801  19.6776401
  40.4674630  67.4867729  32.9067431  41.3306092  67.1304533  33.1170756
  39.8940041  67.1481623  33.5942835  14.8082251  11.1274884  18.0928696
  14.3646105  10.3411262  17.7749601  15.4699464  11.3154034  17.4272587
  16.9063489  11.4077684  16.1210097  16.8881964  12.2286565  15.6290366
  17.8283409  11.2831759  16.3460238  17.8179330   8.0473522  18.5160815
  17.6664836   7.8184074  17.5990899  17.8084009   9.0044123  18.5292161
  19.5271536  11.0792644  16.5937297  19.4684083  10.3951865  15.9267880
  19.9291055  11.8211634  16.1417923  14.4189553   4.6479377  19.0794837
  13.7430190   4.5473506  19.7497212  15.2417187   4.4918590  19.5430834
  13.1612336  15.9546304  13.3152453  13.7130644  16.1177926  14.0801538
  13.5018529  16.5450742  12.6432478  18.0123210  10.7807562  19.1701108
  18.5563114  11.3937520  18.6756062  17.4310055  11.3387140  19.6868121
  13.3078147  13.5204786  15.3301108  13.6165274  13.2753932  16.2023807
  14.1053629  13.7251424  14.8419978  21.3352005  10.2403616  18.5062429
  20.5447548  10.2227755  17.9666928  21.0985359  10.7791909  19.2611465
  21.4549880   7.0896082  15.8195157  21.5047885   6.9246090  16.7610680
  21.3463803   6.2223341  15.4293038  22.9568077   9.5093024  16.0637179
  22.6652885   9.8723004  16.9000640  22.3440208   8.7960032  15.8850511
  14.1067035   7.6511317  19.3815703  15.0270044   7.8289916  19.5755750
  14.0716618   6.7067362  19.2295402  16.1349269   8.4267328  21.0329864
  17.0040429   8.6007981  20.6716499  15.6556020   9.2461745  20.9105593
  27.7941745  20.1355954  10.4375139  28.4320155  20.0162702   9.7338479
  27.6762588  21.0836798  10.4963091  24.6031451  20.0883383  10.3736663
  24.2649962  19.9724447   9.4857198  25.4721219  19.6874548  10.3537669
  25.0851234  21.2418234  16.3322869  25.0739875  20.8471033  15.4603373
  25.2471873  20.5084307  16.9256640  18.0082699  23.4370051   9.2017775
  18.8003991  23.0960875   8.7864074  18.2479349  23.5465026  10.1219928
  21.8058495  24.0255346  15.2802053  21.5148361  24.9300977  15.1648719
  22.4415479  24.0671874  15.9946122  22.7314702  21.4032195  11.8703413
  23.3278274  21.1788217  11.1560375  22.7889673  20.6616940  12.4728860
  27.3483013  17.8607408   7.5128347  28.1346102  17.4426831   7.1618764
  27.6121717  18.7653500   7.6809995  32.7491440  17.7982641   8.4161325
  33.4816612  17.2281858   8.6499155  31.9930796  17.4104242   8.8567831
  30.2716861  11.5104216  12.8755934  29.9400185  12.3799627  12.6517149
  29.6762474  11.1940500  13.5549964  26.7648380  23.7116762  12.2751847
  26.4649103  24.6141800  12.1667654  26.4199440  23.4448945  13.1272999
  20.2160862  20.1630558   8.3088551  19.2911358  20.0306773   8.5166243
  20.4645275  20.9424778   8.8058493  30.1645524  16.2299302   9.9549284
  29.2562401  16.1614710   9.6608045  30.1133120  16.7071247  10.7831109
  21.7469160  30.4761082   5.2422814  21.6693190  31.4268907   5.3211295
  21.1430804  30.1306954   5.8997741  24.2386390  17.6488947  17.8984181
  23.4619724  18.2082867  17.8887046  24.8776953  18.1345730  18.4199051
  32.0307170  14.4315740  11.7327158  31.3881551  14.7248273  11.0866952
  31.5262099  14.3168660  12.5380354  22.4932762  20.4574401  17.4602148
  23.2347446  20.9959445  17.1836972  21.7869748  21.0840689  17.6173700
  27.9688102  22.6003541  16.0574310  28.3771458  22.1585952  15.3128942
  27.2465363  22.0256169  16.3108503  24.3219172  17.5376148  13.4307867
  25.1680367  17.9615561  13.5742516  24.2617809  16.8809772  14.1246430
  28.2916916  23.1604732   9.8126599  27.6625779  23.3250446   9.1102666
  27.9042578  23.5746341  10.5837563  32.1706148  24.0959170   7.1670962
  31.4857186  24.4758071   6.6167996  32.2549998  24.7054496   7.9002910
  27.4718617  15.1980516  15.0889040  27.2279549  15.9522577  14.5523316
  27.7478548  15.5765864  15.9236287  29.4257080  21.7419129  13.7666306
  29.6373975  22.3850889  13.0900687  29.3786828  20.9081445  13.2988236
  27.0283309  14.3536949  10.6702878  26.1667788  14.6518203  10.9619616
  27.0545743  14.5707348   9.7383911  23.8444878  22.8979140   7.0776684
  24.3083224  23.1766843   6.2881306  23.5801676  21.9962584   6.8949774
  20.7368959  22.4450621  10.0156447  21.3070316  22.8737890   9.3773931
  21.3277071  22.1633206  10.7140633  21.2294126  17.6114049  18.2617458
  20.5992786  18.2930330  18.4952855  21.1230214  17.4997130  17.3170596
  30.5402908  24.6191084  11.9388663  31.3620352  24.2171271  11.6571345
  30.5365311  24.5159318  12.8904779  24.3059511  24.1675127  14.0949374
  24.3703944  24.6295535  14.9307545  23.5970435  23.5372492  14.2231683
  38.6308901  20.9629833   8.2873635  37.8772609  20.3937231   8.1317639
  38.7656442  20.9292497   9.2344269  24.0207529  25.8343235   3.9628354
  23.8853204  26.6794771   4.3913202  24.5617341  26.0362513   3.1994288
  20.5074869  11.9134815  20.6242709  20.1141814  11.3601013  21.2990353
  21.3241009  12.2245393  21.0149227  19.2831811  26.4684429   6.6179032
  19.4598439  27.3902394   6.4300016  20.0788645  26.1542848   7.0473412
  23.4242830  13.3292694  18.2162966  24.1652543  13.9299847  18.1367428
  23.6560752  12.5870332  17.6581008  18.5684168  18.5149061  16.4941195
  18.4537683  17.6134318  16.7948294  17.7128685  18.7612758  16.1426012
  20.4063126  27.9862603  12.6189375  20.9570552  27.8579666  11.8466369
  19.5674602  28.2857492  12.2684267  24.2030298  24.2513731  16.9633606
  24.7358634  23.4902019  16.7332914  23.6744379  23.9587383  17.7057760
  27.3699992   9.3573797  12.4927247  27.0264262  10.2475438  12.4166358
  27.7378955   9.1675454  11.6296832  32.3084549  22.1014763   2.9352856
  31.5313992  21.7625922   2.4908018  32.9876030  22.1067386   2.2607821
  30.5475856  21.5748744   9.5919464  29.8899531  22.2648005   9.6799593
  31.3516255  21.9645176   9.9353450  29.3581315  19.9293116   7.6423406
  29.8713197  20.5623108   8.1445115  30.0082539  19.3294312   7.2766766
  26.6203689  29.9077441   0.3984077  25.9465388  30.2109137   1.0069035
  27.0069511  30.7106521   0.0489534  25.8362146  17.4042572   9.8881746
  24.9184707  17.6257519   9.7303434  26.2522290  17.4788882   9.0293454
  30.1243111  24.9099118   5.7702548  29.6705438  24.0690028   5.8267739
  29.4937078  25.5460516   6.1077329  28.5676050  26.7475615   6.7052367
  28.8599025  27.3080672   5.9864732  29.0774671  27.0404176   7.4605526
  23.4408738  18.9121149   8.1021176  23.4957348  17.9594985   8.0263653
  22.6299940  19.0680588   8.5862475  23.5309676  27.5255966   7.7945820
  23.4885854  27.7516812   6.8654352  24.4472375  27.2919340   7.9431621
  26.9775309  17.9940033  14.6926449  27.3324697  18.2211506  15.5520915
  27.6247441  18.3258410  14.0703704  32.7073046  21.1158469   5.3975778
  32.5690945  21.3060065   4.4696967  32.3509265  21.8777852   5.8543829
  20.8715173  15.1016564  11.4772790  21.5114552  14.9605323  10.7795753
  20.0392703  14.8151078  11.1011392  32.7342426  23.1834996  10.4087049
  33.1678933  23.0910285  11.2570104  33.4474007  23.1592497   9.7707065
  21.6475476  24.4018995   7.5907782  22.4416075  23.9069315   7.3890357
  20.9367169  23.8736858   7.2275488  26.4670321  26.7837090  11.9420150
  26.5207343  27.3528027  12.7097866  25.5985102  26.9538975  11.5774187
  19.3468714  16.4854646  13.4244601  20.0191768  16.2772009  12.7757250
  18.5198501  16.2876732  12.9849834  33.5957976  23.2258697  12.9419935
  33.7893866  24.1304507  13.1879210  33.4958594  22.7666116  13.7758520
  25.2494286  13.1116587  15.4410262  24.6022201  13.8106537  15.3474739
  26.0195302  13.5452731  15.8086510  28.6573084  23.3765440  18.5160815
  28.5058591  23.1475991  17.5990899  28.6477764  24.3336041  18.5292161
  25.4258421  20.9497352  13.5007082  26.3550481  21.1008512  13.3276049
  25.0049451  21.0381373  12.6455728  24.2246752  24.9748017  11.2705620
  24.0857838  24.6066801  12.1431558  23.4361349  25.4895656  11.0989577
  24.8194904  30.0757113   2.6131156  24.9946660  29.6045156   3.4276779
  24.1327692  30.7022879   2.8412417  25.7751968  24.3529619   8.6594457
  25.4401800  24.3130389   9.5552107  25.2755913  23.6874335   8.1864868
  19.7496212  19.7597249  14.1847039  19.6116009  19.0277488  14.7858578
  20.6601135  19.6706150  13.9031226  22.3778512  19.4717209  13.6730718
  23.0878131  18.8310401  13.6317337  22.3347820  19.7230104  14.5956899
  21.0907446  16.4582427  15.4926358  20.5544803  16.0073165  16.1447954
  20.5024155  16.5928335  14.7496822  19.3855990  33.2246476   9.3871016
  19.6252588  33.8565000  10.0650035  18.5425186  32.8734516   9.6736376
  30.3682698  24.3724146  14.8251277  29.4809477  24.0350068  14.9477676
  30.9381249  23.6407177  15.0620042  23.8983852  29.0325598  11.7912520
  23.8254023  29.8380570  12.3031825  23.4561245  29.2317564  10.9660542
  23.6873631  28.2697368   5.3015342  22.9041153  28.8119049   5.3953566
  24.3866376  28.7871348   5.7009583  34.8500039  19.7832363   9.5867839
  34.8389915  20.6657079   9.2161772  33.9817418  19.4303914   9.3922376
  26.3582535  28.9312432  13.9470679  27.0710507  29.5659897  13.8746580
  25.8672564  29.0276298  13.1310681  28.0800062  22.8363685   5.5187971
  27.1456341  22.9565148   5.3492675  28.2576730  21.9336152   5.2547980
  31.4672613  18.6781004   6.0538005  31.9333066  19.5108996   5.9798307
  31.9180114  18.2125986   6.7583263  21.4094449  26.6806876  14.7676250
  22.1103908  27.3143359  14.9205644  20.9389564  27.0221607  14.0071889
  29.5348844  25.0224826   3.0524157  29.8108688  24.9081420   3.9618031
  28.6653343  24.6242310   3.0136330  29.4389276  11.0461591  10.0928906
  28.5252356  11.2765818  10.2611113  29.8682378  11.1300035  10.9442938
  29.2095735  19.2351483  12.5928800  28.5567185  19.4827391  11.9381253
  29.5876114  18.4215621  12.2591277  26.1702908  29.2711176   6.6956970
  26.3525303  28.4532832   7.1584723  26.9935894  29.4878869   6.2581860
  26.5045074  28.1979362   3.9572019  27.0332840  27.6871816   3.3442181
  26.7673294  27.8821892   4.8217552  25.2583308  19.9771294  19.0794837
  24.5823945  19.8765424  19.7497212  26.0810941  19.8210508  19.5430834
  17.0062167  26.2143231  11.7007352  17.5915603  25.4686919  11.8335257
  16.8087005  26.5247188  12.5844016  19.8600822  29.2494478   6.7169795
  19.1911197  29.7340606   6.2333835  19.7213692  29.4963699   7.6313173
  24.0006090  31.2838222  13.3152453  24.5524399  31.4469843  14.0801538
  24.3412284  31.8742660  12.6432478  18.9770584  13.6313372  13.9174338
  19.0411910  14.4928203  13.5051736  18.9137704  13.0187373  13.1846696
  18.4522856  15.7036504  17.5647372  19.0794895  15.3213581  18.1784896
  17.5950775  15.4850706  17.9303065  27.1374478  29.2320197  10.3016135
  27.0125617  28.4309937   9.7927081  27.7953569  29.7266391   9.8130105
  29.2009386  27.0329217  11.9295685  28.2539722  26.9134569  11.8574012
  29.5492159  26.1451715  12.0121947  21.5608960  12.9223356  15.7533927
  22.0843361  13.1685653  16.5160237  21.3421293  13.7543391  15.3337065
  26.2055819  26.8281934   8.1300038  26.0580782  25.8998641   8.3107608
  27.0309313  26.8502024   7.6457113  29.8089941  27.6510492   9.2164910
  30.7336489  27.4453354   9.0789362  29.6405245  27.4026894  10.1254252
  22.7661505  13.8637051  13.4383598  22.4258325  13.0644865  13.8404278
  22.0600511  14.1638762  12.8660431  23.4177976  10.9486364  11.8910921
  24.2404046  10.4746842  11.7689811  23.6616040  11.7276848  12.3909607
  20.9416555  17.6405485   9.7002899  20.7961136  17.9545788  10.5927181
  20.4641759  18.2590385   9.1473798  24.6539069  15.0645373  11.7936916
  24.3956847  15.9862443  11.7921247  24.1224109  14.6675807  12.4837381
  29.5985258  28.1696160   4.5727002  29.7722135  27.6042582   3.8200854
  30.0914149  28.9697055   4.3906492  15.4162217  20.1810829  12.6390561
  14.8715685  20.9570637  12.7710835  16.2941567  20.5281633  12.4809682
  35.4524649  20.9332583   6.1917302  35.8955795  20.1839908   5.7936425
  34.5751159  20.9242719   5.8091034  30.5860430  27.4862924   1.6723900
  31.2811335  28.1069617   1.8911215  30.9283580  26.6358275   1.9476278
  16.2028239  19.3080725  15.5320717  15.4609975  19.4563361  16.1185348
  15.8820983  19.5688991  14.6687467  32.4851853  24.9362630   3.2011231
  33.0103177  25.2749903   2.4760551  32.3974206  24.0009645   3.0174366
  24.1471902  28.8496703  15.3301108  24.4559028  28.6045850  16.2023807
  24.9447384  29.0543342  14.8419978  24.1692514  31.0034613   7.5606484
  23.7297504  30.5110992   8.2539341  24.9200631  30.4607581   7.3198559
  16.6484853  27.1946154   7.5631112  17.4742873  26.8949926   7.1829756
  16.2978905  26.4253776   8.0120901  21.6166386  26.5472622   9.6328786
  20.9946395  25.8843327   9.3331014  22.2871253  26.5733754   8.9502434
  14.8493458  25.1132480   8.5220046  14.0125366  24.6854655   8.3404047
  14.8217103  25.3064924   9.4590837  21.6890914  15.0254410  19.2261292
  21.7379069  15.9016533  18.8439061  22.2313428  14.4831803  18.6532935
  29.5847397  18.4018928  17.1354464  30.4857259  18.2625393  16.8438462
  29.6595371  18.5673383  18.0752642  23.9190202  15.7785783  15.9807650
  23.0493511  16.0719349  15.7090239  24.1549682  16.3626228  16.7014914
  34.9957513  22.4037821   8.5839749  35.8304405  22.8427625   8.7477310
  35.1316642  21.9276474   7.7647995  32.0449019  19.9617556  14.5317237
  32.5203141  20.1545202  13.7236088  31.1214585  20.0176742  14.2860621
  26.6229236  11.9965399  13.4973071  27.1411180  12.7326426  13.1719559
  26.2684369  12.3029393  14.3319830  30.7450688  16.8383316  12.7645543
  31.6968111  16.9381414  12.7857767  30.5754139  16.0461585  13.2743627
  28.7665068  13.9238899  12.9504943  28.1715000  14.2043912  12.2551432
  28.4814764  14.4132800  13.7221685  27.8972558  27.8761826   1.7107576
  28.8303231  27.8107388   1.9140451  27.8095771  28.7118093   1.2522109
  33.2238766  20.0589436  11.8787842  33.1915086  19.1205436  12.0647526
  33.8339390  20.1373472  11.1453667  33.3733255  16.8500479  11.9246125
  32.8572303  16.0658936  11.7376054  34.2573203  16.5219196  12.0892645
  39.0415316  21.1205443  11.0193879  39.7718704  20.8590731  11.5801582
  38.4322261  20.3834164  11.0595947  37.1230613  19.2613305  11.6168330
  36.3963777  19.1269270  11.0084822  36.7077900  19.5690134  12.4225048
  24.9460789  22.9803235  19.3815703  25.8663799  23.1581834  19.5755750
  24.9110373  22.0359280  19.2295402  17.9422862  20.8904269  12.0238484
  18.1608872  21.8221377  12.0426518  18.3548636  20.5312244  12.8093288
  22.8150727  16.4637475  21.4141233  22.7147454  17.4131832  21.3453324
  22.5972269  16.1355714  20.5417303  22.6781997  19.8934614  20.2306295
  22.1949079  20.6934974  20.4370184  22.7642936  19.9042559  19.2773739
  18.6055335  23.7839149  12.2674729  19.5598588  23.7523091  12.2004660
  18.4067858  23.3229772  13.0824955  19.1954717  22.3540265  14.8345526
  20.0147606  22.8484343  14.8580364  19.4691525  21.4372233  14.8063094
  32.3035849  14.7697538   7.9127821  33.0796239  15.2593991   8.1852438
  31.5783984  15.1955592   8.3699691  34.7408408  15.4825157   8.9701762
  35.3352899  15.2420893   8.2595070  34.8134992  14.7632288   9.5975298
  16.9605564  29.3258768   9.2844927  16.8260032  28.5659169   8.7182925
  16.5437626  30.0499668   8.8173715  32.7367143  16.0495285   5.2373892
  32.4804077  15.6491921   6.0682099  32.1120011  16.7639079   5.1124031
  37.0479481  18.7891358   7.7445183  36.4879039  18.8584547   8.5176745
  36.4422984  18.6132343   7.0244679  20.1174690  30.2228085   9.4963369
  20.0007074  31.1673518   9.3942059  19.2967136  29.9201647   9.8849168
  14.4489631  16.6878399  15.5337723  15.0948495  16.1777353  16.0224949
  14.2406782  17.4247080  16.1081149  21.1429204  30.8756347  12.7119298
  22.0456450  30.9079957  13.0285793  20.9166574  29.9456798  12.7265633
  22.8982806  29.6287334   9.3729376  21.9478437  29.6289195   9.2593749
  23.2015292  28.8820068   8.8565411  18.7887122  13.8346016  19.6312738
  19.6518584  13.4782821  19.8416062  18.2152533  13.4959911  20.3188142
  38.6335499  35.4647872  10.4375139  39.2713909  35.3454619   9.7338479
  38.5156342  36.4128716  10.4963091  35.4425205  35.4175300  10.3736663
  35.1043717  35.3016365   9.4857198  36.3114974  35.0166465  10.3537669
  31.3012021  37.2710777   6.3633554  30.7376886  37.1800714   5.5949842
  31.1864416  36.4510681   6.8436047  28.8476453  38.7661968   9.2017775
  29.6397745  38.4252793   8.7864074  29.0873103  38.8756943  10.1219928
  36.8811580  40.9381744   1.6748019  36.2299560  41.5235825   1.2882033
  37.6755943  41.4687939   1.7343057  30.8067207  38.0270881   2.0735154
  31.5798083  37.4799869   1.9348029  31.1592606  38.8915131   2.2849615
  33.5708456  36.7324112  11.8703413  34.1672029  36.5080135  11.1560375
  33.6283428  35.9908858  12.4728860  33.1433485  34.1863548  -0.2946397
  33.3959006  33.6645069  -1.0562934  32.2058044  34.0229693  -0.1919713
  38.1876768  33.1899326   7.5128347  38.9739857  32.7718749   7.1618764
  38.4515472  34.0945418   7.6809995  38.3586845  38.6272176   2.2117004
  37.7232678  38.7006803   2.9237908  38.0284251  39.2165775   1.5336083
  43.5885195  33.1274559   8.4161325  44.3210367  32.5573776   8.6499155
  42.8324550  32.7396160   8.8567831  32.8629774  36.0891654   1.9077978
  32.7466032  35.4136557   2.5759063  32.9732033  35.6024027   1.0910131
  35.2061315  35.5501801   5.6124668  34.8419522  35.0232422   6.3237589
  36.0628430  35.1600270   5.4391153  41.1110615  26.8396133  12.8755934
  40.7793940  27.7091544  12.6517149  40.5156229  26.5232417  13.5549964
  34.8466801  30.5791700   0.6086016  35.0141204  31.4471937   0.9756487
  34.6563971  30.7418982  -0.3152695  37.6042135  39.0408679  12.2751847
  37.3042858  39.9433718  12.1667654  37.2593194  38.7740862  13.1272999
  31.0554616  35.4922476   8.3088551  30.1305113  35.3598690   8.5166243
  31.3039029  36.2716695   8.8058493  41.0039278  31.5591219   9.9549284
  40.0956156  31.4906628   9.6608045  40.9526874  32.0363164  10.7831109
  34.8256022  33.0349358   1.5932683  34.7055648  33.4806409   2.4318163
  34.1308611  33.3834676   1.0346221  28.4163427  35.1355750   9.1432340
  28.5455808  35.3890229  10.0571752  27.7360879  35.7283458   8.8236995
  32.5862914  45.8053000   5.2422814  32.5086944  46.7560825   5.3211295
  31.9824558  45.4598872   5.8997741  42.8700925  29.7607658  11.7327158
  42.2275305  30.0540191  11.0866952  42.3655853  29.6460578  12.5380354
  40.5241089  33.5070831   2.4213017  41.4358945  33.7398218   2.2460715
  40.0150736  34.0907875   1.8588096  39.1310671  38.4896649   9.8126599
  38.5019533  38.6542364   9.1102666  38.7436333  38.9038259  10.5837563
  43.0099903  39.4251087   7.1670962  42.3250941  39.8049989   6.6167996
  43.0943752  40.0346414   7.9002910  37.8677063  29.6828867  10.6702878
  37.0061542  29.9810121  10.9619616  37.8939498  29.8999266   9.7383911
  34.6838633  38.2271058   7.0776684  35.1476978  38.5058761   6.2881306
  34.4195431  37.3254502   6.8949774  31.5762714  37.7742539  10.0156447
  32.1464071  38.2029807   9.3773931  32.1670826  37.4925124  10.7140633
  33.6207519  34.3494210   3.8866249  34.3231562  34.8015254   4.3540175
  33.2888147  33.7078029   4.5146142  27.3632853  32.6077763   9.1883382
  26.5731907  32.8635291   8.7123493  27.8544100  33.4226100   9.2935423
  29.3147598  32.9722342   6.1466859  28.5178761  33.0841036   6.6650355
  29.0873190  33.3108994   5.2807750  35.1453266  39.4967045  14.0949374
  35.2097698  39.9587452  14.9307545  34.4364190  38.8664410  14.2231683
  25.6470556  32.8608253  11.6198373  25.8978594  33.7455263  11.8855949
  26.1830104  32.6812855  10.8473465  49.4702655  36.2921750   8.2873635
  48.7166364  35.7229148   8.1317639  49.6050197  36.2584415   9.2344269
  34.8601283  41.1635153   3.9628354  34.7246958  42.0086688   4.3913202
  35.4011096  41.3654430   3.1994288  28.3130681  38.6810591   4.5356279
  28.8255201  39.4753841   4.6861844  28.9653394  37.9836881   4.4689881
  30.1225565  41.7976347   6.6179032  30.2992194  42.7194312   6.4300016
  30.9182399  41.4834766   7.0473412  38.2093747  24.6865714  12.4927247
  37.8658016  25.5767356  12.4166358  38.5772710  24.4967372  11.6296832
  26.2779598  37.0099245   5.3115850  27.1154820  37.4196253   5.0949557
  26.4557865  36.0698687   5.2816043  38.1744030  34.6774326   0.9999683
  37.6590653  35.4478930   1.2388070  37.9021338  34.0039462   1.6232744
  35.7591141  29.5224026   6.0584921  34.9032737  29.1330877   5.8790560
  36.1718092  29.6015987   5.1984706  37.2890287  27.0570370  10.4576481
  36.7855083  27.0200505   9.6444286  37.5820894  27.9663112  10.5173137
  33.5333173  27.1409099   9.4642662  34.3986170  26.9451908   9.1048552
  33.6010682  26.9119451  10.3912019  43.1478304  37.4306680   2.9352856
  42.3707747  37.0917840   2.4908018  43.8269785  37.4359303   2.2607821
  37.9630333  32.5501418   2.8259464  37.6580468  32.8647567   3.6769607
  38.9160775  32.6282838   2.8686797  36.4076765  38.7091641   4.4752418
  35.8798126  37.9744401   4.1625655  35.9064267  39.4866317   4.2292386
  41.3869611  36.9040661   9.5919464  40.7293285  37.5939923   9.6799593
  42.1910010  37.2937093   9.9353450  31.1395492  29.3711307   6.8359029
  31.7139244  29.1486489   6.1032222  31.7266475  29.4400002   7.5887631
  40.1975070  35.2585034   7.6423406  40.7106951  35.8915026   8.1445115
  40.8476293  34.6586230   7.2766766  31.4665079  31.4015768   0.8554914
  30.6302392  31.7390455   1.1764189  31.3269849  31.2664748  -0.0817949
  33.4418160  26.2452556   5.5634099  32.7882572  25.9301573   4.9390713
  33.3998634  25.6228297   6.2893922  34.5529365  36.5271851  -2.5212609
  33.6456427  36.2961105  -2.3221460  35.0500397  35.7309470  -2.3338628
  37.4597444  45.2369358   0.3984077  36.7859143  45.5401055   1.0069035
  37.8463266  46.0398439   0.0489534  36.6755900  32.7334490   9.8881746
  35.7578462  32.9549437   9.7303434  37.0916044  32.8080800   9.0293454
  37.4590948  34.1325905   5.0184427  38.2062767  34.6447303   4.7091549
  37.7282538  33.8109958   5.8788820  35.7317598  36.6284446   2.0011381
  34.8228818  36.3443479   2.0983851  35.7612682  37.0483525   1.1414688
  40.9636866  40.2391036   5.7702548  40.5099193  39.3981945   5.8267739
  40.3330832  40.8752434   6.1077329  39.9069785  31.1683022   7.0003216
  39.1692542  30.6560408   7.3313458  40.1596559  30.7283403   6.1886493
  39.4069805  42.0767532   6.7052367  39.6992779  42.6372589   5.9864732
  39.9168426  42.3696093   7.4605526  40.0081413  23.9459274   7.5944985
  40.3140289  23.0856637   7.3070900  40.7334017  24.5376894   7.3943979
  26.3005769  34.3489960   5.9826583  26.1030169  33.7559321   5.2577650
  25.7452433  34.0442170   6.7002522  34.2802492  34.2413067   8.1021176
  34.3351102  33.2886903   8.0263653  33.4693694  34.3972506   8.5862475
  35.4293686  38.1693190  -0.6600541  34.9913116  37.4529049  -1.1194903
  36.1704127  38.3969305  -1.2215449  32.2194852  32.8590126   5.8611555
  31.4062718  33.1584297   6.2676747  32.7153846  32.4645815   6.5786037
  34.3703430  42.8547883   7.7945820  34.3279609  43.0808730   6.8654352
  35.2866129  42.6211258   7.9431621  43.5466801  36.4450387   5.3975778
  43.4084699  36.6351983   4.4696967  43.1903020  37.2069770   5.8543829
  31.7108927  30.4308482  11.4772790  32.3508306  30.2897241  10.7795753
  30.8786458  30.1442995  11.1011392  43.5736181  38.5126914  10.4087049
  44.0072687  38.4202203  11.2570104  44.2867761  38.4884414   9.7707065
  32.4869231  39.7310912   7.5907782  33.2809829  39.2361233   7.3890357
  31.7760923  39.2028776   7.2275488  37.3064075  42.1129008  11.9420150
  37.3601098  42.6819944  12.7097866  36.4378857  42.2830893  11.5774187
  28.7951994  33.8753994   3.6667535  27.8649583  33.8138450   3.8837497
  28.8909466  33.3529947   2.8704176  28.7137543  30.4008807   6.2545777
  28.9744361  31.3154140   6.1454937  29.5354716  29.9333250   6.4042390
  44.4351730  38.5550614  12.9419935  44.6287620  39.4596425  13.1879210
  44.3352348  38.0958034  13.7758520  36.2652175  36.2789270  13.5007082
  37.1944235  36.4300430  13.3276049  35.8443205  36.3673291  12.6455728
  35.0640507  40.3039934  11.2705620  34.9251593  39.9358719  12.1431558
  34.2755103  40.8187574  11.0989577  35.6588659  45.4049031   2.6131156
  35.8340415  44.9337074   3.4276779  34.9721447  46.0314797   2.8412417
  36.6145722  39.6821537   8.6594457  36.2795555  39.6422307   9.5552107
  36.1149668  39.0166253   8.1864868  39.5504914  37.0277571  -1.0668483
  38.9334084  36.3024400  -1.1635430  39.0821402  37.7886932  -1.4101409
  30.2249744  48.5538394   9.3871016  30.4646342  49.1856918  10.0650035
  29.3818941  48.2026434   9.6736376  31.3403460  31.2462996  -1.9447179
  30.4632926  31.1251796  -2.3084932  31.8161213  30.4549074  -2.1968290
  22.8605600  36.0340155   8.1494328  23.5476640  35.7201885   7.5615344
  22.7053728  36.9381520   7.8761580  27.6640322  30.9230352  12.5779352
  27.5798511  30.3156022  11.8429762  26.8423028  31.4139370  12.5788848
  34.5267386  43.5989286   5.3015342  33.7434908  44.1410966   5.3953566
  35.2260131  44.1163266   5.7009583  37.8364036  29.4083916   7.9449547
  38.3332735  28.6553878   7.6250617  37.0651017  29.4448232   7.3792756
  45.6893793  35.1124281   9.5867839  45.6783669  35.9948996   9.2161772
  44.8211173  34.7595832   9.3922376  38.9193816  38.1655603   5.5187971
  37.9850095  38.2857065   5.3492675  39.0970485  37.2628070   5.2547980
  34.4199005  31.5501299   7.6721232  34.0496792  30.9972339   8.3602137
  34.9158097  30.9459432   7.1196232  42.3066368  34.0072922   6.0538005
  42.7726820  34.8400914   5.9798307  42.7573868  33.5417904   6.7583263
  40.3742599  40.3516743   3.0524157  40.6502443  40.2373338   3.9618031
  39.5047098  39.9534228   3.0136330  40.2783031  26.3753509  10.0928906
  39.3646110  26.6057736  10.2611113  40.7076132  26.4591953  10.9442938
  40.0489489  34.5643401  12.5928800  39.3960939  34.8119308  11.9381253
  40.4269869  33.7507539  12.2591277  37.0096663  44.6003094   6.6956970
  37.1919057  43.7824750   7.1584723  37.8329649  44.8170786   6.2581860
  37.3438828  43.5271279   3.9572019  37.8726595  43.0163734   3.3442181
  37.6067048  43.2113810   4.8217552  27.8455921  41.5435149  11.7007352
  28.4309358  40.7978836  11.8335257  27.6480760  41.8539105  12.5844016
  30.6994576  44.5786396   6.7169795  30.0304952  45.0632524   6.2333835
  30.5607446  44.8255616   7.6313173  22.4373576  34.1140749  10.4211796
  22.4757675  33.5804339  11.2148914  21.9313869  33.5875954   9.8022773
  26.0682153  32.8404851   3.4965727  26.3635595  31.9315529   3.4432781
  25.1670189  32.8192590   3.1746729  37.9768232  44.5612115  10.3016135
  37.8519372  43.7601855   9.7927081  38.6347323  45.0558308   9.8130105
  29.5976400  30.9160848   9.4793276  28.8762986  31.5296815   9.3400749
  30.3869656  31.4518612   9.4009921  40.0403141  42.3621135  11.9295685
  39.0933476  42.2426486  11.8574012  40.3885914  41.4743633  12.0121947
  27.7969995  30.5218949   3.6205052  27.4682701  29.6416328   3.4380158
  28.1509366  30.4666617   4.5081441  37.0449574  42.1573851   8.1300038
  36.8974536  41.2290559   8.3107608  37.8703067  42.1793942   7.6457113
  30.9111818  30.8091918   3.9880530  31.2507891  31.3377840   3.2659138
  31.3583939  31.1472325   4.7639096  40.6483696  42.9802410   9.2164910
  41.5730243  42.7745271   9.0789362  40.4798999  42.7318811  10.1254252
  34.2571731  26.2778282  11.8910921  35.0797800  25.8038760  11.7689811
  34.5009794  27.0568765  12.3909607  32.8979965  29.3066540   2.1873823
  33.6188328  29.6847793   1.6837539  32.2745269  30.0255417   2.2908800
  37.0411088  30.0111689   3.1232155  37.2574703  30.8936327   2.8220983
  36.5605155  29.6197902   2.3937797  31.7810310  32.9697402   9.7002899
  31.6354890  33.2837705  10.5927181  31.3035513  33.5882303   9.1473798
  33.6406693  29.9599950   9.7483789  33.6268261  29.0641043   9.4116087
  34.3579121  29.9670614  10.3822075  35.4932823  30.3937290  11.7936916
  35.2350601  31.3154361  11.7921247  34.9617864  29.9967725  12.4837381
  40.4379012  43.4988077   4.5727002  40.6115890  42.9334500   3.8200854
  40.9307903  44.2988972   4.3906492  26.2555972  35.5102747  12.6390561
  25.7109440  36.2862555  12.7710835  27.1335322  35.8573551  12.4809682
  33.0443588  28.8414330   5.0171359  33.1659500  27.9130977   5.2162247
  32.7545631  28.8553016   4.1049675  35.9134779  26.5269241   8.1538079
  35.9356476  26.5908574   7.1990059  36.3302838  25.6873750   8.3478585
  46.2918403  36.2624500   6.1917302  46.7349549  35.5131826   5.7936425
  45.4144913  36.2534637   5.8091034  41.4254184  42.8154842   1.6723900
  42.1205089  43.4361535   1.8911215  41.7677335  41.9650193   1.9476278
  43.3245608  40.2654547   3.2011231  43.8496932  40.6041820   2.4760551
  43.2367960  39.3301563   3.0174366  35.0086268  46.3326531   7.5606484
  34.5691259  45.8402909   8.2539341  35.7594385  45.7899498   7.3198559
  27.4878607  42.5238072   7.5631112  28.3136627  42.2241843   7.1829756
  27.1372659  41.7545694   8.0120901  32.4560141  41.8764540   9.6328786
  31.8340150  41.2135245   9.3331014  33.1265007  41.9025672   8.9502434
  25.6887212  40.4424398   8.5220046  24.8519121  40.0146572   8.3404047
  25.6610858  40.6356841   9.4590837  32.0173647  40.4268463   3.1087246
  32.1661768  41.1103928   2.4553919  32.8240091  40.4073553   3.6236702
  45.8351268  37.7329739   8.5839749  46.6698159  38.1719543   8.7477310
  45.9710397  37.2568392   7.7647995  29.7726280  36.4533641   4.1148315
  29.5272322  35.5495971   4.3128525  29.9422195  36.4550791   3.1727793
  37.4622990  27.3257317  13.4973071  37.9804934  28.0618344  13.1719559
  37.1078123  27.6321310  14.3319830  29.0421928  32.1861998   1.6134477
  28.3491173  32.2606353   0.9574513  28.7973680  31.4222342   2.1355994
  37.7135584  23.7457600   9.0173967  37.9937338  23.0780789   9.6434394
  38.4986191  23.9386695   8.5048631  35.5169053  42.9216594   0.5798994
  34.9443020  43.5406781   0.1269466  36.0901847  43.4715955   1.1138916
  41.5844443  32.1675234  12.7645543  42.5361866  32.2673331  12.7857767
  41.4147893  31.3753502  13.2743627  39.6058822  29.2530817  12.9504943
  39.0108754  29.5335830  12.2551432  39.3208519  29.7424718  13.7221685
  38.7366313  43.2053744   1.7107576  39.6696986  43.1399305   1.9140451
  38.6489526  44.0410011   1.2522109  44.0632521  35.3881353  11.8787842
  44.0308841  34.4497354  12.0647526  44.6733144  35.4665390  11.1453667
  35.9015851  34.2577406  -2.0784954  36.8474956  34.1283614  -2.0096536
  35.5230096  33.5192068  -1.6015526  44.2127009  32.1792397  11.9246125
  43.6966058  31.3950853  11.7376054  45.0966958  31.8511113  12.0892645
  41.8737736  25.9233412   7.8841938  41.6762557  25.6148501   8.7685270
  42.4837442  26.6495051   8.0139868  49.8809070  36.4497360  11.0193879
  50.6112459  36.1882648  11.5801582  49.2716016  35.7126082  11.0595947
  47.9624368  34.5905223  11.6168330  47.2357531  34.4561188  11.0084822
  47.5471654  34.8982051  12.4225048  34.0858769  32.1827383  -2.1430069
  33.1790224  31.8860495  -2.0667355  34.3634750  31.8857201  -3.0095782
  25.0036709  33.5033746   8.3068978  24.6839493  32.6499054   8.0143352
  24.4570137  33.7182324   9.0626945  28.7816617  36.2196187  12.0238484
  29.0002626  37.1513295  12.0426518  29.1942390  35.8604162  12.8093288
  35.7020834  26.7264272   4.0114173  34.8921563  26.3811357   4.3869419
  36.3905251  26.4171816   4.6001784  37.6311383  25.8042319   5.6338469
  38.1842421  26.2237773   6.2928492  37.8681469  24.8778067   5.6761425
  24.8724969  37.1236658  10.2762099  24.1788440  36.7090610   9.7632054
  25.6197960  37.1657194   9.6795518  41.0090190  27.9142844   5.1417134
  40.4288859  28.5727648   4.7595186  40.7426122  27.0920189   4.7304551
  39.4593756  27.3147902   7.3438454  39.9593534  27.4264437   6.5352773
  40.1029364  27.0108955   7.9839262  26.7861711  37.0554911   8.1528114
  26.7632400  37.1542599   7.2009997  27.0962348  37.9020062   8.4745280
  39.7915068  30.0742935   4.1973482  38.9040923  30.3592585   3.9793677
  40.2069057  29.9136698   3.3500759  43.1429604  30.0989456   7.9127821
  43.9189994  30.5885908   8.1852438  42.4177738  30.5247510   8.3699691
  45.5802162  30.8117075   8.9701762  46.1746653  30.5712811   8.2595070
  45.6528746  30.0924206   9.5975298  27.7999318  44.6550686   9.2844927
  27.6653786  43.8951087   8.7182925  27.3831380  45.3791586   8.8173715
  38.9358281  39.8387609  -1.7078498  39.6394131  40.0437612  -1.0920843
  38.2120930  40.4064371  -1.4429415  39.7656091  35.5897471   4.4123772
  39.7091293  36.0466022   3.5731404  40.3184434  34.8288155   4.2346615
  43.5760897  31.3787203   5.2373892  43.3197832  30.9783838   6.0682099
  42.9513765  32.0930997   5.1124031  47.8873235  34.1183276   7.7445183
  47.3272793  34.1876465   8.5176745  47.2816739  33.9424260   7.0244679
  30.9568444  45.5520003   9.4963369  30.8400828  46.4965435   9.3942059
  30.1360890  45.2493565   9.8849168  40.8444979  40.2770139   0.3419962
  41.6790583  39.8451337   0.1597437  40.6829321  40.1052152   1.2696856
  40.4990871  36.7802252   1.7076301  40.4439675  36.6146523   0.7664745
  39.8736926  37.4878285   1.8638491  33.8086996  26.2810361   1.2861620
  33.7965666  27.2252201   1.4429890  34.7010418  26.0980506   0.9921081
  33.7376560  44.9579251   9.3729376  32.7872191  44.9581113   9.2593749
  34.0409046  44.2111986   8.8565411  37.6239116  22.8753138   5.5407556
  36.8571511  22.3211624   5.6864239  38.0349821  22.9475006   6.4021708
  49.4729254  50.7939790  10.4375139  50.1107664  50.6746537   9.7338479
  49.3550097  51.7420634  10.4963091  46.2818960  50.7467218  10.3736663
  45.9437471  50.6308283   9.4857198  47.1508728  50.3458383  10.3537669
  42.1405776  52.6002694   6.3633554  41.5770641  52.5092631   5.5949842
  42.0258171  51.7802599   6.8436047  46.7638743  51.9002070  16.3322869
  46.7527384  51.5054868  15.4603373  46.9259382  51.1668142  16.9256640
  39.6870208  54.0953886   9.2017775  40.4791499  53.7544711   8.7864074
  39.9266858  54.2048861  10.1219928  43.4846004  54.6839181  15.2802053
  43.1935870  55.5884812  15.1648719  44.1202988  54.7255709  15.9946122
  44.4102211  52.0616030  11.8703413  45.0065783  51.8372052  11.1560375
  44.4677182  51.3200775  12.4728860  49.0270522  48.5191244   7.5128347
  49.8133611  48.1010667   7.1618764  49.2909226  49.4237336   7.6809995
  54.4278949  48.4566477   8.4161325  55.1604121  47.8865694   8.6499155
  53.6718305  48.0688077   8.8567831  51.9504370  42.1688051  12.8755934
  51.6187694  43.0383462  12.6517149  51.3549983  41.8524335  13.5549964
  48.4435889  54.3700597  12.2751847  48.1436612  55.2725636  12.1667654
  48.0986949  54.1032780  13.1272999  41.8948371  50.8214394   8.3088551
  40.9698867  50.6890608   8.5166243  42.1432784  51.6008613   8.8058493
  51.8433033  46.8883137   9.9549284  50.9349910  46.8198546   9.6608045
  51.7920629  47.3655082  10.7831109  39.2557182  50.4647667   9.1432340
  39.3849563  50.7182146  10.0571752  38.5754633  51.0575375   8.8236995
  45.9173899  48.3072783  17.8984181  45.1407233  48.8666703  17.8887046
  46.5564462  48.7929566  18.4199051  53.7094679  45.0899576  11.7327158
  53.0669060  45.3832109  11.0866952  53.2049608  44.9752496  12.5380354
  44.1720271  51.1158236  17.4602148  44.9134955  51.6543280  17.1836972
  43.4657257  51.7424525  17.6173700  49.6475611  53.2587377  16.0574310
  50.0558967  52.8169787  15.3128942  48.9252872  52.6840004  16.3108503
  46.0006681  48.1959983  13.4307867  46.8467876  48.6199397  13.5742516
  45.9405318  47.5393608  14.1246430  49.9704425  53.8188567   9.8126599
  49.3413288  53.9834281   9.1102666  49.5830087  54.2330177  10.5837563
  49.1506126  45.8564352  15.0889040  48.9067058  46.6106412  14.5523316
  49.4266057  46.2349699  15.9236287  51.1044589  52.4002964  13.7666306
  51.3161484  53.0434724  13.0900687  51.0574337  51.5665281  13.2988236
  48.7070818  45.0120785  10.6702878  47.8455297  45.3102038  10.9619616
  48.7333252  45.2291184   9.7383911  42.4156468  53.1034457  10.0156447
  42.9857825  53.5321725   9.3773931  43.0064580  52.8217041  10.7140633
  42.9081635  48.2697884  18.2617458  42.2780295  48.9514165  18.4952855
  42.8017723  48.1580966  17.3170596  38.2026607  47.9369680   9.1883382
  37.4125661  48.1927209   8.7123493  38.6937855  48.7518018   9.2935423
  52.2190417  55.2774919  11.9388663  53.0407861  54.8755107  11.6571345
  52.2152820  55.1743154  12.8904779  40.1541353  48.3014260   6.1466859
  39.3572516  48.4132954   6.6650355  39.9266945  48.6400912   5.2807750
  45.9847020  54.8258963  14.0949374  46.0491453  55.2879370  14.9307545
  45.2757944  54.1956328  14.2231683  40.2471677  49.1732896  16.4941195
  40.1325192  48.2718154  16.7948294  39.3916194  49.4196593  16.1426012
  47.3263514  57.1150637  18.0928696  46.8827368  56.3287015  17.7749601
  47.9880728  57.3029787  17.4272587  42.0850635  58.6446438  12.6189375
  42.6358061  58.5163502  11.8466369  41.2462111  58.9441327  12.2684267
  49.4244752  57.3953437  16.1210097  49.4063228  58.2162318  15.6290366
  50.3464672  57.2707512  16.3460238  45.8817806  54.9097566  16.9633606
  46.4146143  54.1485854  16.7332914  45.3531888  54.6171218  17.7057760
  49.0487501  40.0157632  12.4927247  48.7051771  40.9059274  12.4166358
  49.4166464  39.8259290  11.6296832  37.1173352  52.3391163   5.3115850
  37.9548574  52.7488171   5.0949557  37.2951620  51.3990605   5.2816043
  46.5984895  44.8515944   6.0584921  45.7426492  44.4622794   5.8790560
  47.0111847  44.9307905   5.1984706  48.1284042  42.3862287  10.4576481
  47.6248837  42.3492422   9.6444286  48.4214649  43.2955030  10.5173137
  44.3726928  42.4701017   9.4642662  45.2379924  42.2743826   9.1048552
  44.4404437  42.2411369  10.3912019  52.2263365  52.2332579   9.5919464
  51.5687040  52.9231841   9.6799593  53.0303764  52.6229011   9.9353450
  41.9789247  44.7003225   6.8359029  42.5532999  44.4778406   6.1032222
  42.5660229  44.7691919   7.5887631  44.2811915  41.5744474   5.5634099
  43.6276327  41.2593491   4.9390713  44.2392389  40.9520214   6.2893922
  47.5149655  48.0626407   9.8881746  46.5972216  48.2841354   9.7303434
  47.9309798  48.1372718   9.0293454  50.7463540  46.4974939   7.0003216
  50.0086297  45.9852325   7.3313458  50.9990313  46.0575321   6.1886493
  50.8475167  39.2751191   7.5944985  51.1534044  38.4148555   7.3070900
  51.5727772  39.8668811   7.3943979  37.1399523  49.6781878   5.9826583
  36.9423923  49.0851239   5.2577650  36.5846187  49.3734088   6.7002522
  45.1196247  49.5704984   8.1021176  45.1744857  48.6178821   8.0263653
  44.3087449  49.7264423   8.5862475  43.0588607  48.1882044   5.8611555
  42.2456472  48.4876215   6.2676747  43.5547601  47.7937733   6.5786037
  48.6562818  48.6523869  14.6926449  49.0112206  48.8795342  15.5520915
  49.3034950  48.9842245  14.0703704  42.5502682  45.7600400  11.4772790
  43.1902061  45.6189159  10.7795753  41.7180212  45.4734913  11.1011392
  43.3262985  55.0602830   7.5907782  44.1203584  54.5653150   7.3890357
  42.6154678  54.5320693   7.2275488  48.1457830  57.4420926  11.9420150
  48.1994852  58.0111862  12.7097866  47.2772611  57.6122811  11.5774187
  39.6345749  49.2045912   3.6667535  38.7043337  49.1430367   3.8837497
  39.7303221  48.6821865   2.8704176  39.5531298  45.7300725   6.2545777
  39.8138115  46.6446058   6.1454937  40.3748470  45.2625167   6.4042390
  41.0256223  47.1438482  13.4244601  41.6979277  46.9355844  12.7757250
  40.1986010  46.9460568  12.9849834  55.2745485  53.8842532  12.9419935
  55.4681375  54.7888343  13.1879210  55.1746103  53.4249951  13.7758520
  46.9281795  43.7700423  15.4410262  46.2809710  44.4690372  15.3474739
  47.6982811  44.2036567  15.8086510  50.3360593  54.0349275  18.5160815
  50.1846100  53.8059827  17.5990899  50.3265273  54.9919876  18.5292161
  47.1045930  51.6081188  13.5007082  48.0337990  51.7592347  13.3276049
  46.6836960  51.6965208  12.6455728  45.9034261  55.6331852  11.2705620
  45.7645347  55.2650636  12.1431558  45.1148858  56.1479491  11.0989577
  47.4539477  55.0113455   8.6594457  47.1189309  54.9714225   9.5552107
  46.9543422  54.3458171   8.1864868  41.4283721  50.4181085  14.1847039
  41.2903518  49.6861324  14.7858578  42.3388644  50.3289985  13.9031226
  44.0566021  50.1301044  13.6730718  44.7665640  49.4894236  13.6317337
  44.0135329  50.3813939  14.5956899  52.0452800  57.0668397  16.5937297
  51.9865346  56.3827618  15.9267880  52.4472318  57.8087387  16.1417923
  42.7694955  47.1166262  15.4926358  42.2332312  46.6657000  16.1447954
  42.1811664  47.2512171  14.7496822  52.0470207  55.0307981  14.8251277
  51.1596986  54.6933903  14.9477676  52.6168758  54.2991013  15.0620042
  33.6999354  51.3632073   8.1494328  34.3870394  51.0493803   7.5615344
  33.5447483  52.2673438   7.8761580  45.5771361  59.6909434  11.7912520
  45.5041532  60.4964405  12.3031825  45.1348754  59.8901400  10.9660542
  48.6757790  44.7375833   7.9449547  49.1726490  43.9845796   7.6250617
  47.9044772  44.7740150   7.3792756  48.0370044  59.5896268  13.9470679
  48.7498016  60.2243733  13.8746580  47.5460073  59.6860134  13.1310681
  45.2592759  46.8793216   7.6721232  44.8890547  46.3264257   8.3602137
  45.7551851  46.2751350   7.1196232  43.0881958  57.3390711  14.7676250
  43.7891417  57.9727194  14.9205644  42.6177073  57.6805443  14.0071889
  51.1176785  41.7045427  10.0928906  50.2039865  41.9349654  10.2611113
  51.5469887  41.7883871  10.9442938  50.8883244  49.8935319  12.5928800
  50.2354694  50.1411226  11.9381253  51.2663623  49.0799457  12.2591277
  46.9370817  50.6355130  19.0794837  46.2611454  50.5349259  19.7497212
  47.7598450  50.4794343  19.5430834  38.6849676  56.8727066  11.7007352
  39.2703112  56.1270754  11.8335257  38.4874514  57.1831023  12.5844016
  45.6793599  61.9422057  13.3152453  46.2311907  62.1053679  14.0801538
  46.0199793  62.5326495  12.6432478  50.5304474  56.7683315  19.1701108
  51.0744378  57.3813273  18.6756062  49.9491319  57.3262893  19.6868121
  36.9075908  48.1696769   3.4965727  37.2029349  47.2607447   3.4432781
  36.0063944  48.1484508   3.1746729  40.4370155  46.2452765   9.4793276
  39.7156741  46.8588733   9.3400749  41.2263411  46.7810530   9.4009921
  50.8796895  57.6913053  11.9295685  49.9327231  57.5718404  11.8574012
  51.2279668  56.8035551  12.0121947  38.6363750  45.8510866   3.6205052
  38.3076456  44.9708245   3.4380158  38.9903120  45.7958535   4.5081441
  41.7505573  46.1383836   3.9880530  42.0901645  46.6669757   3.2659138
  42.1977693  46.4764242   4.7639096  44.4449014  44.5220887  13.4383598
  44.1045834  43.7228700  13.8404278  43.7388020  44.8222598  12.8660431
  45.0965485  41.6070199  11.8910921  45.9191555  41.1330677  11.7689811
  45.3403549  42.3860683  12.3909607  43.7373720  44.6358458   2.1873823
  44.4582082  45.0139710   1.6837539  43.1139024  45.3547334   2.2908800
  42.6204064  48.2989320   9.7002899  42.4748645  48.6129623  10.5927181
  42.1429268  48.9174220   9.1473798  44.4800447  45.2891868   9.7483789
  44.4662016  44.3932961   9.4116087  45.1972875  45.2962532  10.3822075
  46.3326578  45.7229208  11.7936916  46.0744356  46.6446279  11.7921247
  45.8011618  45.3259643  12.4837381  43.8837343  44.1706248   5.0171359
  44.0053254  43.2422894   5.2162247  43.5939385  44.1844934   4.1049675
  46.7528533  41.8561159   8.1538079  46.7750230  41.9200492   7.1990059
  47.1696592  41.0165667   8.3478585  45.8259411  59.5080539  15.3301108
  46.1346537  59.2629686  16.2023807  46.6234893  59.7127177  14.8419978
  38.3272362  57.8529989   7.5631112  39.1530382  57.5533761   7.1829756
  37.9766414  57.0837612   8.0120901  43.2953895  57.2056457   9.6328786
  42.6733904  56.5427162   9.3331014  43.9658762  57.2317589   8.9502434
  36.5280967  55.7716316   8.5220046  35.6912875  55.3438490   8.3404047
  36.5004612  55.9648759   9.4590837  43.3678422  45.6838245  19.2261292
  43.4166578  46.5600368  18.8439061  43.9100937  45.1415639  18.6532935
  53.8533268  56.2279369  18.5062429  53.0628812  56.2103508  17.9666928
  53.6166623  56.7667662  19.2611465  53.9731143  53.0771835  15.8195157
  54.0229148  52.9121843  16.7610680  53.8645067  52.2099094  15.4293038
  51.2634906  49.0602763  17.1354464  52.1644768  48.9209228  16.8438462
  51.3382880  49.2257218  18.0752642  45.5977711  46.4369618  15.9807650
  44.7281020  46.7303184  15.7090239  45.8337191  47.0210063  16.7014914
  55.4749340  55.4968777  16.0637179  55.1834148  55.8598757  16.9000640
  54.8621471  54.7835785  15.8850511  53.7236528  50.6201391  14.5317237
  54.1990650  50.8129038  13.7236088  52.8002094  50.6760577  14.2860621
  48.3016745  42.6549235  13.4973071  48.8198689  43.3910262  13.1719559
  47.9471878  42.9613228  14.3319830  39.8815682  47.5153916   1.6134477
  39.1884927  47.5898271   0.9574513  39.6367434  46.7514260   2.1355994
  48.5529339  39.0749517   9.0173967  48.8331093  38.4072706   9.6434394
  49.3379946  39.2678613   8.5048631  52.4238197  47.4967151  12.7645543
  53.3755620  47.5965249  12.7857767  52.2541648  46.7045420  13.2743627
  50.4452577  44.5822735  12.9504943  49.8502509  44.8627747  12.2551432
  50.1602273  45.0716635  13.7221685  54.9026275  50.7173271  11.8787842
  54.8702595  49.7789272  12.0647526  55.5126899  50.7957308  11.1453667
  55.0520764  47.5084314  11.9246125  54.5359812  46.7242771  11.7376054
  55.9360712  47.1803031  12.0892645  52.7131490  41.2525330   7.8841938
  52.5156312  40.9440418   8.7685270  53.3231196  41.9786969   8.0139868
  58.8018122  49.9197140  11.6168330  58.0751286  49.7853105  11.0084822
  58.3865409  50.2273969  12.4225048  46.6248298  53.6387070  19.3815703
  47.5451308  53.8165669  19.5755750  46.5897881  52.6943116  19.2295402
  35.8430463  48.8325664   8.3068978  35.5233248  47.9790972   8.0143352
  35.2963892  49.0474242   9.0626945  39.6210371  51.5488105  12.0238484
  39.8396381  52.4805213  12.0426518  40.0336145  51.1896079  12.8093288
  46.5414589  42.0556190   4.0114173  45.7315317  41.7103275   4.3869419
  47.2299006  41.7463734   4.6001784  48.4705137  41.1334237   5.6338469
  49.0236176  41.5529690   6.2928492  48.7075223  40.2069985   5.6761425
  51.8483944  43.2434762   5.1417134  51.2682613  43.9019566   4.7595186
  51.5819877  42.4212107   4.7304551  50.2987511  42.6439820   7.3438454
  50.7987289  42.7556354   6.5352773  50.9423118  42.3400873   7.9839262
  44.3569506  50.5518449  20.2306295  43.8736588  51.3518810  20.4370184
  44.4430445  50.5626394  19.2773739  37.6255466  52.3846829   8.1528114
  37.6026154  52.4834516   7.2009997  37.9356102  53.2311980   8.4745280
  40.2842844  54.4422984  12.2674729  41.2386097  54.4106926  12.2004660
  40.0855367  53.9813608  13.0824955  40.8742226  53.0124100  14.8345526
  41.6935115  53.5068179  14.8580364  41.1479034  52.0956068  14.8063094
  53.9823358  45.4281373   7.9127821  54.7583748  45.9177826   8.1852438
  53.2571492  45.8539428   8.3699691  56.4195917  46.1408993   8.9701762
  57.0140408  45.9004729   8.2595070  56.4922501  45.4216123   9.5975298
  38.6393073  59.9842604   9.2844927  38.5047541  59.2243004   8.7182925
  38.2225135  60.7083503   8.8173715  48.6530532  54.4143082  21.0329864
  49.5221692  54.5883734  20.6716499  48.1737284  55.2337498  20.9105593
  44.6480751  41.6102279   1.2861620  44.6359421  42.5544119   1.4429890
  45.5404173  41.4272424   0.9921081  42.8216713  61.5340183  12.7119298
  43.7243959  61.5663793  13.0285793  42.5954083  60.6040633  12.7265633
  48.4632870  38.2045055   5.5407556  47.6965266  37.6503542   5.6864239
  48.8743575  38.2766924   6.4021708  56.7567653  63.6364700  17.8984181
  55.9800987  64.1958621  17.8887046  57.3958216  64.1221483  18.4199051
  53.7475389  63.5989802  18.2617458  53.1174050  64.2806083  18.4952855
  53.6411477  63.4872884  17.3170596  53.0256132  57.9010568  20.6242709
  52.6323078  57.3476766  21.2990353  53.8422272  58.2121146  21.0149227
  55.9424093  59.3168447  18.2162966  56.6833806  59.9175600  18.1367428
  56.1742016  58.5746085  17.6581008  51.0865431  64.5024814  16.4941195
  50.9718946  63.6010071  16.7948294  50.2309949  64.7488511  16.1426012
  57.7675550  59.0992340  15.4410262  57.1203465  59.7982290  15.3474739
  58.5376565  59.5328484  15.8086510  51.4951847  59.6189125  13.9174338
  51.5593174  60.4803956  13.5051736  51.4318967  59.0063126  13.1846696
  50.9704120  61.6912257  17.5647372  51.5976159  61.3089335  18.1784896
  50.1132039  61.4726459  17.9303065  54.0790223  58.9099109  15.7533927
  54.6024625  59.1561406  16.5160237  53.8602556  59.7419144  15.3337065
  54.2072177  61.0130163  19.2261292  54.2560332  61.8892286  18.8439061
  54.7494691  60.4707556  18.6532935  55.3331991  62.4513228  21.4141233
  55.2328718  63.4007585  21.3453324  55.1153533  62.1231467  20.5417303
  55.1963261  65.8810367  20.2306295  54.7130343  66.6810727  20.4370184
  55.2824200  65.8918312  19.2773739  46.9670895  62.6754152  15.5337723
  47.6129758  62.1653106  16.0224949  46.7588046  63.4122833  16.1081149
  51.3068386  59.8221769  19.6312738  52.1699847  59.4658574  19.8416062
  50.7333796  59.4835664  20.3188142  36.4869761  18.7920842   4.8174003
  36.0433615  18.0057220   4.4994907  37.1486975  18.9799992   4.1517893
  38.5850999  19.0723642   2.8455404  38.5669474  19.8932523   2.3535673
  39.5070919  18.9477717   3.0705545  39.4966840  15.7119480   5.2406122
  39.3452346  15.4830031   4.3236206  39.4871519  16.6690081   5.2537467
  41.2059047  18.7438602   3.3182604  41.1471593  18.0597822   2.6513187
  41.6078565  19.4857592   2.8663230  36.0977063  12.3125335   5.8040144
  35.4217700  12.2119464   6.4742519  36.9204697  12.1564548   6.2676141
  34.8399846  23.6192262   0.0397760  35.3918154  23.7823884   0.8046845
  35.1806040  24.2096700  -0.6322215  39.6910721  18.4453520   5.8946414
  40.2350625  19.0583478   5.4001369  39.1097565  19.0033098   6.4113427
  34.9865658  21.1850744   2.0546414  35.2952784  20.9399890   2.9269114
  35.7841140  21.3897382   1.5665284  43.0139515  17.9049574   5.2307735
  42.2235059  17.8873713   4.6912235  42.7772869  18.4437867   5.9856772
  43.1337390  14.7542040   2.5440464  43.1835395  14.5892047   3.4855987
  43.0251313  13.8869299   2.1538345  44.6355587  17.1738982   2.7882486
  44.3440395  17.5368962   3.6245947  44.0227718  16.4605990   2.6095818
  35.7854545  15.3157275   6.1061010  36.7057555  15.4935874   6.3001056
  35.7504128  14.3713320   5.9540709  37.8136779  16.0913286   7.7575171
  38.6827939  16.2653939   7.3961806  37.3343531  16.9107703   7.6350900
  49.4729255  27.8001912  -2.8379555  50.1107665  27.6808660  -3.5416215
  49.3550098  28.7482756  -2.7791603  46.2818961  27.7529340  -2.9018030
  45.9437473  27.6370405  -3.7897495  47.1508729  27.3520506  -2.9217024
  46.7638744  28.9064192   3.0568176  46.7527385  28.5116990   2.1848679
  46.9259384  28.1730265   3.6501947  39.6870209  31.1016008  -4.0736919
  40.4791501  30.7606833  -4.4890619  39.9266859  31.2110984  -3.1534765
  43.4846005  31.6901304   2.0047359  43.1935871  32.5946935   1.8894026
  44.1202990  31.7317832   2.7191429  44.4102212  29.0678153  -1.4051281
  45.0065784  28.8434175  -2.1194318  44.4677184  28.3262898  -0.8025833
  48.4435890  31.3762720  -1.0002847  48.1436614  32.2787758  -1.1087040
  48.0986950  31.1094903  -0.1481694  41.8948372  27.8276516  -4.9666142
  40.9698868  27.6952730  -4.7588451  42.1432785  28.6070736  -4.4696200
  45.9173900  25.3134905   4.6229488  45.1407234  25.8728825   4.6132352
  46.5564463  25.7991688   5.1444358  44.1720272  28.1220359   4.1847455
  44.9134957  28.6605403   3.9082278  43.4657258  28.7486647   4.3419007
  49.6475612  30.2649499   2.7819616  50.0558968  29.8231910   2.0374249
  48.9252873  29.6902127   3.0353809  46.0006682  25.2022106   0.1553173
  46.8467877  25.6261519   0.2987822  45.9405320  24.5455730   0.8491736
  49.9704427  30.8250690  -3.4628095  49.3413289  30.9896404  -4.1652027
  49.5830089  31.2392299  -2.6917131  49.1506127  22.8626474   1.8134347
  48.9067059  23.6168535   1.2768623  49.4266058  23.2411822   2.6481594
  51.1044590  29.4065087   0.4911612  51.3161485  30.0496847  -0.1854006
  51.0574338  28.5727403   0.0233543  42.4156470  30.1096579  -3.2598246
  42.9857827  30.5383848  -3.8980762  43.0064581  29.8279164  -2.5614061
  42.9081636  25.2760007   4.9862765  42.2780297  25.9576288   5.2198162
  42.8017724  25.1643088   4.0415903  52.2190418  32.2837042  -1.3366030
  53.0407862  31.8817229  -1.6183349  52.2152821  32.1805276  -0.3849914
  45.9847021  31.8321085   0.8194680  46.0491454  32.2941493   1.6552852
  45.2757945  31.2018450   0.9476990  42.1862379  19.5780773   7.3488016
  41.7929324  19.0246971   8.0235660  43.0028519  19.8891351   7.7394533
  45.1030340  20.9938652   4.9408272  45.8440053  21.5945805   4.8612735
  45.3348263  20.2516290   4.3826315  40.2471678  26.1795019   3.2186502
  40.1325193  25.2780276   3.5193601  39.3916196  26.4258716   2.8671319
  47.3263516  34.1212759   4.8174003  46.8827370  33.3349138   4.4994907
  47.9880729  34.3091910   4.1517893  42.0850637  35.6508561  -0.6565319
  42.6358062  35.5225624  -1.4288325  41.2462113  35.9503450  -1.0070426
  49.4244754  34.4015559   2.8455404  49.4063229  35.2224440   2.3535673
  50.3464674  34.2769634   3.0705545  45.8817808  31.9159689   3.6878912
  46.4146145  31.1547977   3.4578220  45.3531889  31.6233341   4.4303067
  52.2263366  29.2394702  -3.6835229  51.5687041  29.9293963  -3.5955101
  53.0303766  29.6291134  -3.3401243  47.5149656  25.0688530  -3.3872947
  46.5972217  25.2903477  -3.5451259  47.9309800  25.1434840  -4.2461240
  45.1196248  26.5767107  -5.1733517  45.1744858  25.6240943  -5.2491041
  44.3087450  26.7326546  -4.6892219  48.6562820  25.6585991   1.4171756
  49.0112207  25.8857464   2.2766221  49.3034951  25.9904368   0.7949011
  42.5502683  22.7662522  -1.7981903  43.1902062  22.6251281  -2.4958940
  41.7180213  22.4797036  -2.1743301  43.3262987  32.0664953  -5.6846911
  44.1203585  31.5715273  -5.8864336  42.6154679  31.5382816  -6.0479205
  48.1457831  34.4483048  -1.3334543  48.1994853  35.0173984  -0.5656827
  47.2772613  34.6184933  -1.6980506  41.0256225  24.1500604   0.1489908
  41.6979278  23.9417967  -0.4997443  40.1986011  23.9522690  -0.2904860
  55.2745486  30.8904655  -0.3334758  55.4681376  31.7950465  -0.0875484
  55.1746104  30.4312074   0.5003827  46.9281797  20.7762545   2.1655569
  46.2809712  21.4752495   2.0720045  47.6982812  21.2098689   2.5331817
  50.3360594  31.0411397   5.2406122  50.1846101  30.8121949   4.3236206
  50.3265274  31.9981999   5.2537467  47.1045931  28.6143310   0.2252389
  48.0337991  28.7654470   0.0521356  46.6836961  28.7027331  -0.6298965
  45.9034263  32.6393975  -2.0049074  45.7645348  32.2712759  -1.1323136
  45.1148859  33.1541614  -2.1765116  47.4539478  32.0175577  -4.6160236
  47.1189310  31.9776347  -3.7202586  46.9543424  31.3520293  -5.0889826
  41.4283722  27.4243207   0.9092345  41.2903520  26.6923446   1.5103884
  42.3388645  27.3352107   0.6276533  44.0566022  27.1363167   0.3976025
  44.7665641  26.4956359   0.3562643  44.0135331  27.3876062   1.3202206
  52.0452801  34.0730520   3.3182604  51.9865347  33.3889740   2.6513187
  52.4472320  34.8149510   2.8663230  42.7694956  24.1228385   2.2171664
  42.2332313  23.6719123   2.8693261  42.1811665  24.2574293   1.4742129
  52.0470208  32.0370104   1.5496584  51.1596987  31.6996026   1.6722983
  52.6168759  31.3053135   1.7865349  45.5771362  36.6971556  -1.4842173
  45.5041533  37.5026528  -0.9722869  45.1348755  36.8963522  -2.3094152
  48.0370045  36.5958390   0.6715986  48.7498018  37.2305855   0.5991887
  47.5460074  36.6922256  -0.1444013  43.0881959  34.3452834   1.4921556
  43.7891418  34.9789317   1.6450951  42.6177074  34.6867565   0.7317196
  50.8883245  26.8997441  -0.6825893  50.2354695  27.1473349  -1.3373441
  51.2663625  26.0861579  -1.0163416  46.9370818  27.6417252   5.8040144
  46.2611455  27.5411382   6.4742519  47.7598452  27.4856466   6.2676141
  38.6849677  33.8789189  -1.5747341  39.2703114  33.1332877  -1.4419437
  38.4874515  34.1893146  -0.6910677  45.6793601  38.9484180   0.0397760
  46.2311909  39.1115801   0.8046845  46.0199794  39.5388618  -0.6322215
  40.6558094  21.2959330   0.6419644  40.7199420  22.1574160   0.2297042
  40.5925214  20.6833331  -0.0907997  40.1310366  23.3682462   4.2892679
  40.7582405  22.9859539   4.9030203  39.2738285  23.1496664   4.6548371
  50.5304475  33.7745437   5.8946414  51.0744379  34.3875396   5.4001369
  49.9491320  34.3325016   6.4113427  50.8796896  34.6975175  -1.3459008
  49.9327232  34.5780527  -1.4180681  51.2279669  33.8097673  -1.2632747
  43.2396470  20.5869314   2.4779234  43.7630872  20.8331611   3.2405543
  43.0208803  21.4189349   2.0582371  44.4449015  21.5283009   0.1628904
  44.1045835  20.7290822   0.5649584  43.7388021  21.8284720  -0.4094262
  45.0965487  18.6132322  -1.3843773  45.9191556  18.1392800  -1.5064882
  45.3403550  19.3922806  -0.8845086  42.6204065  25.3051442  -3.5751794
  42.4748646  25.6191746  -2.6827512  42.1429269  25.9236343  -4.1280895
  46.3326579  22.7291331  -1.4817777  46.0744357  23.6508401  -1.4833446
  45.8011619  22.3321765  -0.7917313  37.0949728  27.8456787  -0.6364133
  36.5503196  28.6216595  -0.5043858  37.9729077  28.1927591  -0.7945011
  37.8815749  26.9726683   2.2566024  37.1397485  27.1209318   2.8430655
  37.5608494  27.2334949   1.3932774  45.8259412  36.5142661   2.0546414
  46.1346538  36.2691808   2.9269114  46.6234894  36.7189300   1.5665284
  38.3272363  34.8592112  -5.7123581  39.1530383  34.5595884  -6.0924938
  37.9766415  34.0899734  -5.2633793  43.2953896  34.2118580  -3.6425908
  42.6733906  33.5489285  -3.9423680  43.9658763  34.2379712  -4.3252260
  36.5280968  32.7778438  -4.7534648  35.6912876  32.3500613  -4.9350646
  36.5004614  32.9710882  -3.8163856  43.3678424  22.6900368   5.9506598
  43.4166579  23.5662491   5.5684368  43.9100938  22.1477761   5.3778242
  53.8533269  33.2341491   5.2307735  53.0628813  33.2165630   4.6912235
  53.6166624  33.7729785   5.9856772  53.9731144  30.0833958   2.5440464
  54.0229149  29.9183965   3.4855987  53.8645068  29.2161217   2.1538345
  51.2634907  26.0664886   3.8599771  52.1644770  25.9271351   3.5683769
  51.3382881  26.2319341   4.7997948  45.5977712  23.4431741   2.7052957
  44.7281022  23.7365307   2.4335546  45.8337193  24.0272186   3.4260221
  55.4749341  32.5030899   2.7882486  55.1834150  32.8660880   3.6245947
  54.8621473  31.7897908   2.6095818  53.7236530  27.6263514   1.2562544
  54.1990651  27.8191160   0.4481395  52.8002095  27.6822700   1.0105927
  48.3016746  19.6611357   0.2218377  48.8198690  20.3972384  -0.1035134
  47.9471879  19.9675351   1.0565137  52.4238199  24.5029274  -0.5109151
  53.3755621  24.6027372  -0.4896927  52.2541649  23.7107543  -0.0011066
  50.4452578  21.5884857  -0.3249750  49.8502510  21.8689870  -1.0203261
  50.1602275  22.0778758   0.4466991  46.6248300  30.6449193   6.1061010
  47.5451309  30.8227792   6.3001056  46.5897883  29.7005238   5.9540709
  39.6210372  28.5550227  -1.2516209  39.8396382  29.4867335  -1.2328175
  40.0336146  28.1958202  -0.4661405  44.4938238  24.1283433   8.1386540
  44.3934964  25.0777790   8.0698631  44.2759780  23.8001672   7.2662610
  44.3569508  27.5580572   6.9551602  43.8736589  28.3580932   7.1615491
  44.4430447  27.5688517   6.0019046  40.2842845  31.4485107  -1.0079965
  41.2386099  31.4169049  -1.0750033  40.0855369  30.9875730  -0.1929739
  40.8742227  30.0186223   1.5590833  41.6935116  30.5130301   1.5825670
  41.1479035  29.1018191   1.5308401  38.6393074  36.9904726  -3.9909767
  38.5047542  36.2305127  -4.5571769  38.2225136  37.7145626  -4.4580978
  36.1277141  24.3524357   2.2583030  36.7736005  23.8423311   2.7470255
  35.9194293  25.0893038   2.8326455  48.6530534  31.4205204   7.7575171
  49.5221693  31.5945856   7.3961806  48.1737285  32.2399621   7.6350900
  42.8216714  38.5402305  -0.5635396  43.7243961  38.5725915  -0.2468901
  42.5954084  37.6102756  -0.5489060  40.4674632  21.4991974   6.3558044
  41.3306094  21.1428779   6.5661369  39.8940043  21.1605869   7.0433449
  56.7567654  40.6426823   4.6229488  55.9800989  41.2020743   4.6132352
  57.3958218  41.1283606   5.1444358  53.7475391  40.6051925   4.9862765
  53.1174051  41.2868205   5.2198162  53.6411478  40.4935006   4.0415903
  53.0256133  34.9072690   7.3488016  52.6323079  34.3538889   8.0235660
  53.8422274  35.2183269   7.7394533  55.9424094  36.3230569   4.9408272
  56.6833808  36.9237723   4.8612735  56.1742017  35.5808207   4.3826315
  51.0865432  41.5086937   3.2186502  50.9718947  40.6072194   3.5193601
  50.2309950  41.7550633   2.8671319  57.7675551  36.1054463   2.1655569
  57.1203466  36.8044413   2.0720045  58.5376566  36.5390607   2.5331817
  51.4951848  36.6251247   0.6419644  51.5593175  37.4866078   0.2297042
  51.4318969  36.0125249  -0.0907997  50.9704121  38.6974380   4.2892679
  51.5976160  38.3151457   4.9030203  50.1132040  38.4788582   4.6548371
  54.0790224  35.9161232   2.4779234  54.6024626  36.1623529   3.2405543
  53.8602558  36.7481267   2.0582371  54.2072178  38.0192286   5.9506598
  54.2560334  38.8954409   5.5684368  54.7494692  37.4769679   5.3778242
  55.3331992  39.4575351   8.1386540  55.2328719  40.4069708   8.0698631
  55.1153534  39.1293590   7.2662610  55.1963262  42.8872490   6.9551602
  54.7130344  43.6872850   7.1615491  55.2824201  42.8980435   6.0019046
  46.9670896  39.6816274   2.2583030  47.6129760  39.1715228   2.7470255
  46.7588047  40.4184956   2.8326455  51.3068387  36.8283891   6.3558044
  52.1699849  36.4720696   6.5661369  50.7333798  36.4897786   7.0433449
   6.1127636  43.9567710  21.5628325   5.3591345  43.3875108  21.4072329
   6.2475177  43.9230374  22.5098960   1.0776711  46.2196574  26.2174625
   1.2712601  47.1242385  26.4633900   0.9777329  45.7603993  27.0513210
   2.3318774  42.7770241  22.8622529   2.3208650  43.6594956  22.4916462
   1.4636153  42.4241792  22.6677066   2.9343384  43.9270460  19.4671992
   3.3774530  43.1777785  19.0691115   2.0569894  43.9180597  19.0845724
   1.2780566  47.8322819  29.3391869   0.9865375  48.1952799  30.1755330
   0.6652698  47.1189827  29.1605201   2.4776249  45.3975698  21.8594439
   3.3123140  45.8365503  22.0232000   2.6135377  44.9214352  21.0402685
   0.7057501  43.0527313  25.1542532   0.6733821  42.1143314  25.3402216
   1.3158125  43.1311350  24.4208357   6.5234051  44.1143320  24.2948569
   7.2537440  43.8528608  24.8556273   5.9140997  43.3772042  24.3350637
   4.6049348  42.2551183  24.8923020   3.8782512  42.1207147  24.2839512
   4.1896635  42.5628011  25.6979738   2.2227143  38.4763035  22.2456452
   2.8171634  38.2358771  21.5349760   2.2953727  37.7570165  22.8729988
   4.5298216  41.7829236  21.0199873   3.9697774  41.8522425  21.7931435
   3.9241719  41.6070220  20.2999369   6.1154234  58.4585750  23.7129829
   6.7532644  58.3392497  23.0093169   5.9975077  59.4066593  23.7717781
   2.9243941  58.4113178  23.6491354   2.5862452  58.2954242  22.7611889
   3.7933709  58.0104343  23.6292360   3.4063724  59.5648029  29.6077559
   3.3952364  59.1700828  28.7358063   3.5684363  58.8314102  30.2011331
   1.0527192  59.7261990  25.1458103   1.6490764  59.5018012  24.4315066
   1.1102163  58.9846735  25.7483551   5.6695503  56.1837203  20.7883037
   6.4558592  55.7656627  20.4373454   5.9334207  57.0883296  20.9564685
  11.0703930  56.1212437  21.6916016  11.8029102  55.5511653  21.9253845
  10.3143286  55.7334037  22.1322521   2.6880050  58.5439678  18.8879358
   2.3238257  58.0170299  19.5992279   3.5447166  58.1538147  18.7145843
   8.5929350  49.8334011  26.1510624   8.2612675  50.7029422  25.9271839
   7.9974964  49.5170295  26.8304655   8.4858014  54.5529097  23.2303974
   7.5774891  54.4844505  22.9362735   8.4345610  55.0301042  24.0585800
   2.5598880  55.9718742  31.1738871   1.7832214  56.5312663  31.1641736
   3.1989443  56.4575525  31.6953742  10.3519660  52.7545535  25.0081848
   9.7094040  53.0478068  24.3621643   9.8474589  52.6398456  25.8135045
   8.0059824  56.5008708  15.6967707   8.9177680  56.7336095  15.5215405
   7.4969471  57.0845753  15.1342786   6.2900591  60.9233336  29.3329000
   6.6983947  60.4815747  28.5883632   5.5677853  60.3485964  29.5863193
   2.6431662  55.8605943  26.7062557   3.4892857  56.2845357  26.8497206
   2.5830299  55.2039567  27.4001120   6.6129406  61.4834527  23.0881289
   5.9838269  61.6480241  22.3857357   6.2255068  61.8976136  23.8592253
  10.4918638  62.4188965  20.4425653   9.8069676  62.7987866  19.8922686
  10.5762487  63.0284291  21.1757600   5.7931107  53.5210311  28.3643731
   5.5492039  54.2752372  27.8278006   6.0691037  53.8995659  29.1990978
   7.7469570  60.0648924  27.0420996   7.9586465  60.7080684  26.3655377
   7.6999318  59.2311240  26.5742926   5.3495799  52.6766744  23.9457568
   4.4880278  52.9747998  24.2374306   5.3758233  52.8937143  23.0138601
   8.8615398  62.9420879  25.2143353   9.6832841  62.5401066  24.9326035
   8.8577800  62.8389113  26.1659469  16.9521391  59.2859628  21.5628325
  16.1985099  58.7167026  21.4072329  17.0868932  59.2522292  22.5098960
   1.7455319  51.6522489  31.4917656   2.4865033  52.2529642  31.4122119
   1.9773242  50.9100127  30.9335699   5.6912482  47.6803592  25.7681938
   5.3476752  48.5705234  25.6921048   6.0591445  47.4905249  24.9051523
   3.2409876  52.5161904  19.3339611   2.3851472  52.1268754  19.1545250
   3.6536828  52.5953865  18.4739397   4.7709023  50.0508247  23.7331171
   4.2673818  50.0138382  22.9198976   5.0639629  50.9600990  23.7927828
   1.0151908  50.1346977  22.7397353   1.8804905  49.9389785  22.3803242
   1.0829417  49.9057328  23.6666709  10.6297039  60.4244558  16.2107546
   9.8526482  60.0855717  15.7662708  11.3088520  60.4297181  15.5362511
   5.4449068  55.5439295  16.1014154   5.1399204  55.8585444  16.9524297
   6.3979510  55.6220715  16.1441487   8.8688346  59.8978539  22.8674154
   8.2112020  60.5877800  22.9554283   9.6728745  60.2874971  23.2108141
   7.6793805  58.2522912  20.9178096   8.1925687  58.8852903  21.4199806
   8.3295029  57.6524107  20.5521456   4.1574636  55.7272367  23.1636437
   3.2397197  55.9487314  23.0058125   4.5734779  55.8018678  22.3048144
   4.9409683  57.1263783  18.2939117   5.6881502  57.6385180  17.9846239
   5.2101273  56.8047835  19.1543510   7.3888521  54.1620899  20.2757906
   6.6511277  53.6498285  20.6068149   7.6415294  53.7221281  19.4641183
   7.4900148  46.9397151  20.8699675   7.7959025  46.0794514  20.5825590
   8.2152753  47.5314771  20.6698669   1.7621228  57.2350944  21.3775866
   1.8169837  56.2824780  21.3018343   0.9512430  57.3910383  21.8617165
   5.2987799  56.3169828  27.9681139   5.6537187  56.5441301  28.8275605
   5.9459930  56.6488205  27.3458395  11.0285536  59.4388264  18.6730468
  10.8903435  59.6289860  17.7451657  10.6721755  60.2007647  19.1298519
  11.0554916  61.5064791  23.6841740  11.4891422  61.4140080  24.5324794
  11.7686496  61.4822292  23.0461756  11.9170465  61.5488492  26.2174625
  12.1106355  62.4534302  26.4633900  11.8171083  61.0895911  27.0513210
   3.5706776  51.4346382  28.7164953   2.9234691  52.1336332  28.6229429
   4.3407791  51.8682526  29.0841201   6.9785574  61.6995235  31.7915506
   6.8271080  61.4705786  30.8745589   6.9690253  62.6565836  31.8046851
   3.7470910  59.2727147  26.7761772   4.6762970  59.4238307  26.6030740
   3.3261940  59.3611168  25.9210419   0.6991002  57.7947004  26.9485408
   1.4090621  57.1540196  26.9072027   0.6560310  58.0459899  27.8711589
   8.6895188  62.6953941  28.1005967   7.8021967  62.3579863  28.2232366
   9.2593739  61.9636972  28.3374733   5.3182771  52.4021793  21.2204237
   5.8151471  51.6491755  20.9005308   4.5469753  52.4386110  20.6547447
  13.1712528  58.1062158  22.8622529  13.1602405  58.9886874  22.4916462
  12.3029908  57.7533709  22.6677066   6.4012552  61.1593480  18.7942661
   5.4668830  61.2794943  18.6247365   6.5789220  60.2565947  18.5302671
   1.9017740  54.5439176  20.9475922   1.5315527  53.9910216  21.6356828
   2.3976832  53.9397309  20.3950922   9.7885103  57.0010799  19.3292695
  10.2545555  57.8338791  19.2552998  10.2392604  56.5355781  20.0337953
   7.7601766  49.3691386  23.3683596   6.8464846  49.5995613  23.5365803
   8.1894867  49.4529830  24.2197629   7.5308224  57.5581278  25.8683490
   6.8779675  57.8057186  25.2135943   7.9088604  56.7445417  25.5345968
   3.5795797  58.3001089  32.3549527   2.9036434  58.1995219  33.0251903
   4.4023431  58.1440303  32.8185525   1.7390466  49.2716159  25.1665611
   2.5616535  48.7976637  25.0444501   1.9828530  50.0506643  25.6664297
   4.5229824  53.0049566  16.3986845   4.7393438  53.8874204  16.0975673
   4.0423891  52.6135780  15.6692487   1.1225428  52.9537828  23.0238479
   1.1086997  52.0578921  22.6870777   1.8397856  52.9608491  23.6576765
   2.9751559  53.3875168  25.0691607   2.7169336  54.3092238  25.0675937
   2.4436599  52.9905602  25.7592071   3.3953514  49.5207118  21.4292769
   3.4175211  49.5846451  20.4744749   3.8121573  48.6811627  21.6233275
  13.7737138  59.2562378  19.4671992  14.2168284  58.5069703  19.0691115
  12.8963649  59.2472514  19.0845724  10.8064343  63.2592425  16.4765921
  11.3315667  63.5979698  15.7515241  10.7186695  62.3239440  16.2929056
  10.6156124  60.7417795  29.0949848  10.6654129  60.5767802  30.0365370
  10.5070047  59.8745054  28.7047728   7.9059886  56.7248723  30.4109154
   8.8069749  56.5855188  30.1193152   7.9807861  56.8903178  31.3507332
   2.2402692  54.1015578  29.2562341   1.3706001  54.3949144  28.9844929
   2.4762172  54.6856023  29.9769604  12.1174321  63.1614736  29.3391869
  11.8259129  63.5244717  30.1755330  11.5046452  62.4481745  29.1605201
  13.3170003  60.7267616  21.8594439  14.1516895  61.1657420  22.0232000
  13.4529132  60.2506269  21.0402685  10.3661509  58.2847351  27.8071927
  10.8415631  58.4774997  26.9990779   9.4427074  58.3406537  27.5615311
   4.9441726  50.3195195  26.7727761   5.4623669  51.0556221  26.4474250
   4.5896858  50.6259188  27.6074520   5.1954320  46.7395477  22.2928658
   5.4756073  46.0718666  22.9189084   5.9804927  46.9324573  21.7803322
   9.0663178  55.1613111  26.0400233  10.0180601  55.2611209  26.0612457
   8.8966628  54.3691380  26.5498317   7.0877558  52.2468694  26.2259634
   6.4927490  52.5273707  25.5306122   6.8027254  52.7362595  26.9976375
  11.5451256  58.3819231  25.1542532  11.5127576  57.4435232  25.3402216
  12.1551879  58.4603267  24.4208357  11.6945744  55.1730274  25.2000816
  11.1784793  54.3888731  25.0130744  12.5785693  54.8448991  25.3647335
   9.3556471  48.9171290  21.1596628   9.1581292  48.6086378  22.0439960
   9.9656177  49.6432929  21.2894558  17.3627806  59.4435238  24.2948569
  18.0931194  59.1820526  24.8556273  16.7534751  58.7063960  24.3350637
  15.4443103  57.5843100  24.8923020  14.7176266  57.4499065  24.2839512
  15.0290390  57.8919929  25.6979738   3.2673279  61.3033030  32.6570393
   4.1876289  61.4811629  32.8510440   3.2322862  60.3589075  32.5050093
   3.1839570  49.7202150  17.2868863   2.3740298  49.3749235  17.6624109
   3.8723987  49.4109694  17.8756475   5.1130118  48.7980197  18.9093160
   5.6661156  49.2175650  19.5683183   5.3500204  47.8715945  18.9516116
   1.1363217  54.7867270  34.6895924   1.0359944  55.7361627  34.6208015
   0.9184759  54.4585509  33.8171994   8.4908925  50.9080722  18.4171824
   7.9107594  51.5665526  18.0349876   8.2244858  50.0858066  18.0059241
   6.9412491  50.3085780  20.6193144   7.4412270  50.4202314  19.8107463
   7.5848099  50.0046832  21.2593953   0.9994487  58.2164409  33.5060985
   0.5161569  59.0164769  33.7124874   1.0855426  58.2272354  32.5528429
   7.2733803  53.0680812  17.4728172   6.3859658  53.3530463  17.2548367
   7.6887792  52.9074576  16.6255449  10.6248339  53.0927333  21.1882511
  11.4008729  53.5823786  21.4607128   9.8996473  53.5185387  21.6454381
  13.0620898  53.8054952  22.2456452  13.6565389  53.5650688  21.5349760
  13.1347481  53.0862083  22.8729988   7.2474827  58.5835348  17.6878462
   7.1910028  59.0403900  16.8486095   7.8003169  57.8226033  17.5101305
  11.0579633  54.3725080  18.5128582  10.8016567  53.9721716  19.3436790
  10.4332501  55.0868874  18.3878721  15.3691970  57.1121153  21.0199873
  14.8091528  57.1814343  21.7931435  14.7635474  56.9362138  20.2999369
   1.2905731  49.2748238  14.5616310   1.2784401  50.2190078  14.7184581
   2.1829153  49.0918384  14.2675771   5.1057851  45.8691015  18.8162247
   4.3390247  45.3149502  18.9618929   5.5168556  45.9412884  19.6776398
  19.4323105  65.1625928  26.1510624  19.1006430  66.0321339  25.9271839
  18.8368718  64.8462212  26.8304655  16.5306237  63.0095510  25.7681938
  16.1870506  63.8997151  25.6921048  16.8985199  62.8197167  24.9051523
  18.3293902  62.2689069  20.8699675  18.6352779  61.4086432  20.5825590
  19.0546507  62.8606689  20.6698669  18.5995520  64.6983304  23.3683596
  17.6858600  64.9287531  23.5365803  19.0288622  64.7821748  24.2197629
  14.2347269  64.8499036  21.4292769  14.2568965  64.9138369  20.4744749
  14.6515328  64.0103545  21.6233275  16.0348074  62.0687395  22.2928658
  16.3149828  61.4010584  22.9189084  16.8198681  62.2616490  21.7803322
  20.1950226  64.2463207  21.1596628  19.9975047  63.9378296  22.0439960
  20.8049931  64.9724846  21.2894558  14.0233324  65.0494068  17.2868863
  13.2134052  64.7041152  17.6624109  14.7117741  64.7401611  17.8756475
  15.9523872  64.1272114  18.9093160  16.5054911  64.5467568  19.5683183
  16.1893959  63.2007862  18.9516116  19.3302679  66.2372639  18.4171824
  18.7501348  66.8957444  18.0349876  19.0638612  65.4149984  18.0059241
  17.7806246  65.6377697  20.6193144  18.2806024  65.7494232  19.8107463
  18.4241854  65.3338750  21.2593953  15.9451605  61.1982933  18.8162247
  15.1784001  60.6441419  18.9618929  16.3562310  61.2704801  19.6776398
   1.2780568  24.8384941  16.0637176   0.9865376  25.2014922  16.9000637
   0.6652699  24.1251950  15.8850508   6.1154236  35.4647872  10.4375136
   6.7532646  35.3454619   9.7338476   5.9975079  36.4128716  10.4963088
   2.9243942  35.4175300  10.3736660   2.5862454  35.3016365   9.4857195
   3.7933710  35.0166465  10.3537666   3.4063725  36.5710152  16.3322866
   3.3952366  36.1762950  15.4603369   3.5684364  35.8376225  16.9256637
   1.0527193  36.7324112  11.8703409   1.6490765  36.5080135  11.1560372
   1.1102165  35.9908858  12.4728857   5.6695504  33.1899326   7.5128344
   6.4558593  32.7718749   7.1618761   5.9334209  34.0945418   7.6809992
  11.0703931  33.1274559   8.4161322  11.8029103  32.5573776   8.6499152
  10.3143287  32.7396160   8.8567828   8.5929352  26.8396133  12.8755931
   8.2612676  27.7091544  12.6517146   7.9974965  26.5232417  13.5549961
   5.0860871  39.0408679  12.2751843   4.7861594  39.9433718  12.1667651
   4.7411931  38.7740862  13.1272996   8.4858015  31.5591219   9.9549281
   7.5774892  31.4906628   9.6608042   8.4345611  32.0363164  10.7831106
   2.5598881  32.9780865  17.8984178   1.7832215  33.5374785  17.8887043
   3.1989444  33.4637648  18.4199048  10.3519661  29.7607658  11.7327155
   9.7094042  30.0540191  11.0866949   9.8474590  29.6460578  12.5380351
   6.2900593  37.9295459  16.0574307   6.6983949  37.4877869  15.3128939
   5.5677854  37.3548086  16.3108499   2.6431663  32.8668066  13.4307864
   3.4892858  33.2907479  13.5742513   2.5830300  32.2101690  14.1246427
   6.6129407  38.4896649   9.8126595   5.9838270  38.6542364   9.1102663
   6.2255069  38.9038259  10.5837559  10.4918639  39.4251087   7.1670959
   9.8069677  39.8049989   6.6167993  10.5762489  40.0346414   7.9002907
   5.7931108  30.5272434  15.0889037   5.5492040  31.2814495  14.5523313
   6.0691039  30.9057782  15.9236284   7.7469571  37.0711046  13.7666303
   7.9586466  37.7142806  13.0900684   7.6999319  36.2373363  13.2988233
   5.3495800  29.6828867  10.6702875   4.4880279  29.9810121  10.9619612
   5.3758234  29.8999266   9.7383908   8.8615399  39.9483002  11.9388660
   9.6832843  39.5463189  11.6571342   8.8577802  39.8451236  12.8904776
   2.6272002  39.4967045  14.0949371   2.6916435  39.9587452  14.9307542
   1.9182926  38.8664410  14.2231680  16.9521392  36.2921750   8.2873632
  16.1985100  35.7229148   8.1317636  17.0868933  36.2584415   9.2344266
   1.7455321  28.6584611  18.2162963   2.4865034  29.2591765  18.1367425
   1.9773243  27.9162249  17.6581005   3.9688496  41.7858719  18.0928693
   3.5252350  40.9995098  17.7749597   4.6305710  41.9737870  17.4272584
   6.0669734  42.0661519  16.1210094   6.0488210  42.8870400  15.6290363
   6.9889654  41.9415594  16.3460235   2.5242789  39.5805648  16.9633603
   3.0571125  38.8193937  16.7332911   1.9956870  39.2879300  17.7057757
   5.6912483  24.6865714  12.4927244   5.3476753  25.5767356  12.4166355
   6.0591446  24.4967372  11.6296829  10.6297040  37.4306680   2.9352853
   9.8526483  37.0917840   2.4908015  11.3088521  37.4359303   2.2607818
   8.8688347  36.9040661   9.5919461   8.2112022  37.5939923   9.6799590
   9.6728746  37.2937093   9.9353447   7.6793806  35.2585034   7.6423403
   8.1925688  35.8915026   8.1445112   8.3295030  34.6586230   7.2766763
   4.1574637  32.7334490   9.8881743   3.2397198  32.9549437   9.7303431
   4.5734781  32.8080800   9.0293451   8.4455602  40.2391036   5.7702545
   7.9917929  39.3981945   5.8267736   7.8149569  40.8752434   6.1077325
   6.8888542  42.0767532   6.7052363   7.1811516  42.6372589   5.9864729
   7.3987162  42.3696093   7.4605523   1.7621229  34.2413067   8.1021173
   1.8169839  33.2886903   8.0263650   0.9512431  34.3972506   8.5862472
   5.2987800  33.3231951  14.6926446   5.6537188  33.5503424  15.5520912
   5.9459932  33.6550328  14.0703701  11.0285537  36.4450387   5.3975775
  10.8903436  36.6351983   4.4696964  10.6721756  37.2069770   5.8543826
  11.0554917  38.5126914  10.4087046  11.4891424  38.4202203  11.2570100
  11.7686498  38.4884414   9.7707062   4.7882812  42.1129008  11.9420147
   4.8419834  42.6819944  12.7097863   3.9197593  42.2830893  11.5774184
  11.9170467  38.5550614  12.9419932  12.1106357  39.4596425  13.1879207
  11.8171085  38.0958034  13.7758517   3.5706777  28.4408505  15.4410259
   2.9234692  29.1398455  15.3474736   4.3407793  28.8744649  15.8086507
   6.9785575  38.7057357  18.5160812   6.8271082  38.4767909  17.5990896
   6.9690255  39.6627959  18.5292157   3.7470912  36.2789270  13.5007079
   4.6762972  36.4300430  13.3276046   3.3261942  36.3673291  12.6455725
   2.5459243  40.3039934  11.2705616   2.4070329  39.9358719  12.1431555
   1.7573840  40.8187574  11.0989574   4.0964459  39.6821537   8.6594454
   3.7614291  39.6422307   9.5552104   3.5968404  39.0166253   8.1864864
   0.6991003  34.8009126  13.6730715   1.4090622  34.1602319  13.6317333
   0.6560311  35.0522021  14.5956896   8.6877782  41.7376480  16.5937294
   8.6290328  41.0535700  15.9267877   9.0897300  42.4795470  16.1417920
   8.6895189  39.7016064  14.8251274   7.8021968  39.3641985  14.9477673
   9.2593740  38.9699095  15.0620039  13.1712530  35.1124281   9.5867836
  13.1602406  35.9948996   9.2161769  12.3029909  34.7595832   9.3922373
   4.6795026  44.2604350  13.9470676   5.3922998  44.8951815  13.8746577
   4.1885055  44.3568216  13.1310678   6.4012553  38.1655603   5.5187967
   5.4668832  38.2857065   5.3492672   6.5789221  37.2628070   5.2547977
   9.7885104  34.0072922   6.0538002  10.2545557  34.8400914   5.9798304
  10.2392605  33.5417904   6.7583260   7.7601767  26.3753509  10.0928903
   6.8464847  26.6057736  10.2611110   8.1894869  26.4591953  10.9442935
   7.5308226  34.5643401  12.5928797   6.8779676  34.8119308  11.9381250
   7.9088606  33.7507539  12.2591274   3.5795799  35.3063212  19.0794834
   2.9036436  35.2057341  19.7497209   4.4023433  35.1502426  19.5430831
   2.3218582  46.6130139  13.3152450   2.8736890  46.7761761  14.0801535
   2.6624775  47.2034577  12.6432475   7.1729456  41.4391397  19.1701104
   7.7169360  42.0521355  18.6756059   6.5916301  41.9970975  19.6868117
   5.4586969  44.5612115  10.3016132   5.3338108  43.7601855   9.7927078
   6.1166060  45.0558308   9.8130102   7.5221877  42.3621135  11.9295682
   6.5752213  42.2426486  11.8574009   7.8704650  41.4743633  12.0121944
   4.5268310  42.1573851   8.1300035   4.3793273  41.2290559   8.3107605
   5.3521804  42.1793942   7.6457110   8.1302432  42.9802410   9.2164907
   9.0548980  42.7745271   9.0789358   7.9617736  42.7318811  10.1254249
   1.7390467  26.2778282  11.8910918   2.5616537  25.8038760  11.7689808
   1.9828531  27.0568765  12.3909604   2.9751560  30.3937290  11.7936913
   2.7169338  31.3154361  11.7921244   2.4436600  29.9967725  12.4837377
  13.7737140  36.2624500   6.1917298  14.2168286  35.5131826   5.7936422
  12.8963650  36.2534637   5.8091030  10.8064344  40.2654547   3.2011228
  11.3315668  40.6041820   2.4760548  10.7186697  39.3301563   3.0174362
   2.4684393  44.1788621  15.3301104   2.7771519  43.9337768  16.2023804
   3.2659875  44.3835260  14.8419975  10.4958250  40.8987451  18.5062426
   9.7053794  40.8811590  17.9666925  10.2591605  41.4375745  19.2611462
  10.6156125  37.7479917  15.8195154  10.6654130  37.5829925  16.7610677
  10.5070049  36.8807176  15.4293035   7.9059888  33.7310845  17.1354461
   8.8069750  33.5917310  16.8438459   7.9807862  33.8965300  18.0752638
   2.2402693  31.1077700  15.9807647   1.3706002  31.4011266  15.7090236
   2.4762173  31.6918145  16.7014911  12.1174322  40.1676859  16.0637176
  11.8259130  40.5306840  16.9000637  11.5046453  39.4543867  15.8850508
  13.3170004  37.7329739   8.5839746  14.1516896  38.1719543   8.7477306
  13.4529133  37.2568392   7.7647992  10.3661510  35.2909474  14.5317234
  10.8415632  35.4837120  13.7236085   9.4427076  35.3468659  14.2860617
   4.9441727  27.3257317  13.4973068   5.4623671  28.0618344  13.1719556
   4.5896860  27.6321310  14.3319827   9.0663179  32.1675234  12.7645539
  10.0180602  32.2673331  12.7857763   8.8966630  31.3753502  13.2743624
   7.0877559  29.2530817  12.9504940   6.4927491  29.5335830  12.2551429
   6.8027255  29.7424718  13.7221681  11.5451257  35.3881353  11.8787839
  11.5127577  34.4497354  12.0647523  12.1551881  35.4665390  11.1453664
  11.6945746  32.1792397  11.9246122  11.1784794  31.3950853  11.7376051
  12.5785694  31.8511113  12.0892642  17.3627807  36.4497360  11.0193876
  18.0931195  36.1882648  11.5801579  16.7534752  35.7126082  11.0595944
  15.4443104  34.5905223  11.6168327  14.7176268  34.4561188  11.0084819
  15.0290391  34.8982051  12.4225045   3.2673280  38.3095152  19.3815700
   4.1876290  38.4873751  19.5755747   3.2322864  37.3651198  19.2295399
   1.1363218  31.7929393  21.4141230   1.0359945  32.7423750  21.3453321
   0.9184760  31.4647632  20.5417300   0.9994488  35.2226532  20.2306292
   0.5161570  36.0226892  20.4370181   1.0855427  35.2334477  19.2773736
  10.6248340  30.0989456   7.9127818  11.4008730  30.5885908   8.1852435
   9.8996475  30.5247510   8.3699688  13.0620899  30.8117075   8.9701759
  13.6565390  30.5712811   8.2595067  13.1347483  30.0924206   9.5975295
  11.0579634  31.3787203   5.2373888  10.8016568  30.9783838   6.0682096
  10.4332502  32.0930997   5.1124028  15.3691972  34.1183276   7.7445180
  14.8091530  34.1876465   8.5176742  14.7635475  33.9424260   7.0244676
   5.2955514  39.0851164  21.0329861   6.1646674  39.2591816  20.6716496
   4.8162266  39.9045581  20.9105590  16.9547990  50.7939790  10.4375136
  17.5926400  50.6746537   9.7338476  16.8368833  51.7420634  10.4963088
  13.7637696  50.7467218  10.3736660  13.4256208  50.6308283   9.4857195
  14.6327465  50.3458383  10.3537666  14.2457479  51.9002070  16.3322866
  14.2346120  51.5054868  15.4603369  14.4078119  51.1668142  16.9256637
  10.9664741  54.6839181  15.2802050  10.6754607  55.5884812  15.1648716
  11.6021725  54.7255709  15.9946119  11.8920947  52.0616030  11.8703409
  12.4884520  51.8372052  11.1560372  11.9495919  51.3200775  12.4728857
  16.5089259  48.5191244   7.5128344  17.2952348  48.1010667   7.1618761
  16.7727963  49.4237336   7.6809992  21.9097686  48.4566477   8.4161322
  22.6422858  47.8865694   8.6499152  21.1537042  48.0688077   8.8567828
  13.5273806  50.8793718   5.6124665  13.1632013  50.3524339   6.3237586
  14.3840921  50.4892187   5.4391150  19.4323106  42.1688051  12.8755931
  19.1006431  43.0383462  12.6517146  18.8368720  41.8524335  13.5549961
  15.9254626  54.3700597  12.2751843  15.6255349  55.2725636  12.1667651
  15.5805685  54.1032780  13.1272996  19.3251769  46.8883137   9.9549281
  18.4168647  46.8198546   9.6608042  19.2739365  47.3655082  10.7831106
  13.3992635  48.3072783  17.8984178  12.6225969  48.8666703  17.8887043
  14.0383198  48.7929566  18.4199048  21.1913416  45.0899576  11.7327155
  20.5487796  45.3832109  11.0866949  20.6868344  44.9752496  12.5380351
  18.8453580  48.8362749   2.4213014  19.7571436  49.0690135   2.2460712
  18.3363227  49.4199793   1.8588093  11.6539008  51.1158236  17.4602145
  12.3953692  51.6543280  17.1836969  10.9475993  51.7424525  17.6173697
  17.1294347  53.2587377  16.0574307  17.5377703  52.8169787  15.3128939
  16.4071609  52.6840004  16.3108499  13.4825417  48.1959983  13.4307864
  14.3286612  48.6199397  13.5742513  13.4224055  47.5393608  14.1246427
  17.4523162  53.8188567   9.8126595  16.8232024  53.9834281   9.1102663
  17.0648824  54.2330177  10.5837559  21.3312394  54.7543005   7.1670959
  20.6463432  55.1341906   6.6167993  21.4156243  55.3638332   7.9002907
  16.6324863  45.8564352  15.0889037  16.3885794  46.6106412  14.5523313
  16.9084793  46.2349699  15.9236284  18.5863325  52.4002964  13.7666303
  18.7980221  53.0434724  13.0900684  18.5393074  51.5665281  13.2988233
  16.1889554  45.0120785  10.6702875  15.3274033  45.3102038  10.9619612
  16.2151989  45.2291184   9.7383908   9.8975205  53.1034457  10.0156444
  10.4676562  53.5321725   9.3773928  10.4883317  52.8217041  10.7140629
  10.3900371  48.2697884  18.2617455   9.7599032  48.9514165  18.4952852
  10.2836459  48.1580966  17.3170593  19.7009153  55.2774919  11.9388660
  20.5226597  54.8755107  11.6571342  19.6971556  55.1743154  12.8904776
  13.4665757  54.8258963  14.0949371  13.5310189  55.2879370  14.9307542
  12.7576681  54.1956328  14.2231680   3.9683047  48.1900171  11.6198370
   4.2191085  49.0747181  11.8855946   4.5042595  48.0104772  10.8473462
  27.7915146  51.6213668   8.2873632  27.0378855  51.0521066   8.1317636
  27.9262688  51.5876332   9.2344266   9.6681114  42.5718650  20.6242706
   9.2748060  42.0184849  21.2990350  10.4847254  42.8829229  21.0149224
  12.5849075  43.9876529  18.2162963  13.3258788  44.5883682  18.1367425
  12.8166998  43.2454167  17.6581005   7.7290413  49.1732896  16.4941192
   7.6143928  48.2718154  16.7948291   6.8734931  49.4196593  16.1426009
  14.8082251  57.1150637  18.0928693  14.3646105  56.3287015  17.7749597
  15.4699464  57.3029787  17.4272584  16.9063489  57.3953437  16.1210094
  16.8881964  58.2162318  15.6290363  17.8283409  57.2707512  16.3460235
  13.3636543  54.9097566  16.9633603  13.8964880  54.1485854  16.7332911
  12.8350624  54.6171218  17.7057757  16.5306238  40.0157632  12.4927244
  16.1870507  40.9059274  12.4166355  16.8985201  39.8259290  11.6296829
  14.0803632  44.8515944   6.0584918  13.2245228  44.4622794   5.8790557
  14.4930583  44.9307905   5.1984703  15.6102778  42.3862287  10.4576478
  15.1067574  42.3492422   9.6444283  15.9033385  43.2955030  10.5173134
  11.8545664  42.4701017   9.4642659  12.7198661  42.2743826   9.1048549
  11.9223173  42.2411369  10.3912016  21.4690795  52.7598598   2.9352853
  20.6920238  52.4209757   2.4908015  22.1482276  52.7651221   2.2607818
  16.2842824  47.8793335   2.8259461  15.9792959  48.1939484   3.6769604
  17.2373266  47.9574755   2.8686794  19.7082102  52.2332579   9.5919461
  19.0505776  52.9231841   9.6799590  20.5122501  52.6229011   9.9353447
   9.4607983  44.7003225   6.8359026  10.0351735  44.4778406   6.1032219
  10.0478966  44.7691919   7.5887627  18.5187561  50.5876952   7.6423403
  19.0319442  51.2206944   8.1445112  19.1688784  49.9878147   7.2766763
  11.7630651  41.5744474   5.5634096  11.1095063  41.2593491   4.9390710
  11.7211125  40.9520214   6.2893919  14.9968391  48.0626407   9.8881743
  14.0790953  48.2841354   9.7303431  15.4128535  48.1372718   9.0293451
  15.7803439  49.4617823   5.0184423  16.5275258  49.9739220   4.7091546
  16.0495029  49.1401876   5.8788817  19.2849357  55.5682953   5.7702545
  18.8311684  54.7273863   5.8267736  18.6543323  56.2044352   6.1077325
  18.2282276  46.4974939   7.0003213  17.4905033  45.9852325   7.3313455
  18.4809050  46.0575321   6.1886490  17.7282296  57.4059450   6.7052363
  18.0205270  57.9664507   5.9864729  18.2380917  57.6988011   7.4605523
  18.3293904  39.2751191   7.5944982  18.6352780  38.4148555   7.3070897
  19.0546508  39.8668811   7.3943976  12.6014983  49.5704984   8.1021173
  12.6563593  48.6178821   8.0263650  11.7906185  49.7264423   8.5862472
  16.1381555  48.6523869  14.6926446  16.4930943  48.8795342  15.5520912
  16.7853686  48.9842245  14.0703701  21.8679292  51.7742304   5.3975775
  21.7297191  51.9643900   4.4696964  21.5115511  52.5361687   5.8543826
  10.0321418  45.7600400  11.4772787  10.6720797  45.6189159  10.7795750
   9.1998949  45.4734913  11.1011389  21.8948672  53.8418831  10.4087046
  22.3285178  53.7494121  11.2570100  22.6080252  53.8176332   9.7707062
  15.6276566  57.4420926  11.9420147  15.6813589  58.0111862  12.7097863
  14.7591348  57.6122811  11.5774184   8.5074960  47.1438482  13.4244598
   9.1798013  46.9355844  12.7757247   7.6804746  46.9460568  12.9849831
  22.7564221  53.8842532  12.9419932  22.9500111  54.7888343  13.1879207
  22.6564839  53.4249951  13.7758517  14.4100532  43.7700423  15.4410259
  13.7628447  44.4690372  15.3474736  15.1801547  44.2036567  15.8086507
  17.8179330  54.0349275  18.5160812  17.6664836  53.8059827  17.5990896
  17.8084009  54.9919876  18.5292157  14.5864666  51.6081188  13.5007079
  15.5156726  51.7592347  13.3276046  14.1655696  51.6965208  12.6455725
  13.3852998  55.6331852  11.2705616  13.2464084  55.2650636  12.1431555
  12.5967594  56.1479491  11.0989574  14.9358213  55.0113455   8.6594454
  14.6008046  54.9714225   9.5552104  14.4362159  54.3458171   8.1864864
   8.9102457  50.4181085  14.1847035   8.7722255  49.6861324  14.7858574
   9.8207381  50.3289985  13.9031223  11.5384758  50.1301044  13.6730715
  12.2484376  49.4894236  13.6317333  11.4954066  50.3813939  14.5956896
  19.5271536  57.0668397  16.5937294  19.4684083  56.3827618  15.9267877
  19.9291055  57.8087387  16.1417920  10.2513692  47.1166262  15.4926355
   9.7151049  46.6657000  16.1447951   9.6630400  47.2512171  14.7496819
  19.5288944  55.0307981  14.8251274  18.6415722  54.6933903  14.9477673
  20.0987495  54.2991013  15.0620039   5.9852813  46.2522270  12.5779349
   5.9011002  45.6447939  11.8429759   5.1635519  46.7431288  12.5788845
  16.1576527  44.7375833   7.9449544  16.6545226  43.9845796   7.6250614
  15.3863508  44.7740150   7.3792753  24.0106284  50.4416199   9.5867836
  23.9996160  51.3240914   9.2161769  23.1423664  50.0887750   9.3922373
  15.5188781  59.5896268  13.9470676  16.2316753  60.2243733  13.8746577
  15.0278809  59.6860134  13.1310678  17.2406308  53.4947520   5.5187967
  16.3062586  53.6148983   5.3492672  17.4182976  52.5919987   5.2547977
  12.7411496  46.8793216   7.6721229  12.3709283  46.3264257   8.3602134
  13.2370588  46.2751350   7.1196229  20.6278859  49.3364840   6.0538002
  21.0939311  50.1692831   5.9798304  21.0786359  48.8709821   6.7583260
  10.5700694  57.3390711  14.7676247  11.2710154  57.9727194  14.9205641
  10.0995809  57.6805443  14.0071886  18.5995522  41.7045427  10.0928903
  17.6858601  41.9349654  10.2611110  19.0288623  41.7883871  10.9442935
  18.3701980  49.8935319  12.5928797  17.7173430  50.1411226  11.9381250
  18.7482360  49.0799457  12.2591274  14.4189553  50.6355130  19.0794834
  13.7430190  50.5349259  19.7497209  15.2417187  50.4794343  19.5430831
  13.1612336  61.9422057  13.3152450  13.7130644  62.1053679  14.0801535
  13.5018529  62.5326495  12.6432475   8.1376829  44.2897207  13.9174335
   8.2018156  45.1512038  13.5051732   8.0743949  43.6771209  13.1846693
   7.6129102  46.3620340  17.5647369   8.2401141  45.9797417  18.1784893
   6.7557021  46.1434541  17.9303062  18.0123210  56.7683315  19.1701104
  18.5563114  57.3813273  18.6756059  17.4310055  57.3262893  19.6868117
  16.2980723  59.8904033  10.3016132  16.1731863  59.0893773   9.7927078
  16.9559814  60.3850226   9.8130102   7.9188892  46.2452765   9.4793272
   7.1975477  46.8588733   9.3400746   8.7082147  46.7810530   9.4009918
  18.3615632  57.6913053  11.9295682  17.4145967  57.5718404  11.8574009
  18.7098405  56.8035551  12.0121944  10.7215205  43.5807192  15.7533924
  11.2449607  43.8269488  16.5160234  10.5027538  44.4127227  15.3337062
  15.3662065  57.4865769   8.1300035  15.2187027  56.5582476   8.3107605
  16.1915558  57.5085860   7.6457110  18.9696187  58.3094328   9.2164907
  19.8942734  58.1037189   9.0789358  18.8011490  58.0610729  10.1254249
  11.9267750  44.5220887  13.4383595  11.5864570  43.7228700  13.8404275
  11.2206756  44.8222598  12.8660428  12.5784222  41.6070199  11.8910918
  13.4010291  41.1330677  11.7689808  12.8222285  42.3860683  12.3909604
  15.3623579  45.3403607   3.1232152  15.5787194  46.2228245   2.8220980
  14.8817646  44.9489820   2.3937794  10.1022801  48.2989320   9.7002896
   9.9567381  48.6129623  10.5927178   9.6248004  48.9174220   9.1473795
  11.9619184  45.2891868   9.7483786  11.9480752  44.3932961   9.4116084
  12.6791612  45.2962532  10.3822072  13.8145314  45.7229208  11.7936913
  13.5563092  46.6446279  11.7921244  13.2830355  45.3259643  12.4837377
  11.3656079  44.1706248   5.0171356  11.4871991  43.2422894   5.2162244
  11.0758122  44.1844934   4.1049671  14.2347270  41.8561159   8.1538076
  14.2568967  41.9200492   7.1990055  14.6515329  41.0165667   8.3478582
  24.6130894  51.5916418   6.1917298  25.0562040  50.8423743   5.7936422
  23.7357404  51.5826554   5.8091030   5.3634485  49.9664561  15.5320714
   4.6216221  50.1147196  16.1185345   5.0427229  50.2272826  14.6687464
  21.6458099  55.5946465   3.2011228  22.1709423  55.9333738   2.4760548
  21.5580451  54.6593480   3.0174362  13.3078147  59.5080539  15.3301104
  13.6165274  59.2629686  16.2023804  14.1053629  59.7127177  14.8419975
  10.8497159  45.6838245  19.2261289  10.8985314  46.5600368  18.8439058
  11.3919673  45.1415639  18.6532932  21.3352005  56.2279369  18.5062426
  20.5447548  56.2103508  17.9666925  21.0985359  56.7667662  19.2611462
  21.4549880  53.0771835  15.8195154  21.5047885  52.9121843  16.7610677
  21.3463803  52.2099094  15.4293035  18.7453642  49.0602763  17.1354461
  19.6463505  48.9209228  16.8438459  18.8201617  49.2257218  18.0752638
  13.0796447  46.4369618  15.9807647  12.2099757  46.7303184  15.7090236
  13.3155928  47.0210063  16.7014911  22.9568077  55.4968777  16.0637176
  22.6652885  55.8598757  16.9000637  22.3440208  54.7835785  15.8850508
  24.1563759  53.0621656   8.5839746  24.9910650  53.5011460   8.7477306
  24.2922888  52.5860310   7.7647992  21.2055265  50.6201391  14.5317234
  21.6809386  50.8129038  13.7236085  20.2820830  50.6760577  14.2860617
  15.7835481  42.6549235  13.4973068  16.3017425  43.3910262  13.1719556
  15.4290614  42.9613228  14.3319827  16.0348075  39.0749517   9.0173964
  16.3149829  38.4072706   9.6434391  16.8198682  39.2678613   8.5048628
  19.9056934  47.4967151  12.7645539  20.8574357  47.5965249  12.7857763
  19.7360384  46.7045420  13.2743624  17.9271313  44.5822735  12.9504940
  17.3321245  44.8627747  12.2551429  17.6421010  45.0716635  13.7221681
  22.3845012  50.7173271  11.8787839  22.3521332  49.7789272  12.0647523
  22.9945635  50.7957308  11.1453664  22.5339500  47.5084314  11.9246122
  22.0178549  46.7242771  11.7376051  23.4179449  47.1803031  12.0892642
  20.1950227  41.2525330   7.8841935  19.9975048  40.9440418   8.7685267
  20.8049933  41.9786969   8.0139865  28.2021561  51.7789278  11.0193876
  28.9324950  51.5174566  11.5801579  27.5928507  51.0418000  11.0595944
  26.2836859  49.9197140  11.6168327  25.5570022  49.7853105  11.0084819
  25.8684145  50.2273969  12.4225045  14.1067035  53.6387070  19.3815700
  15.0270044  53.8165669  19.5755747  14.0716618  52.6943116  19.2295399
   7.1029108  51.5488105  12.0238481   7.3215117  52.4805213  12.0426515
   7.5154881  51.1896079  12.8093285  14.0233325  42.0556190   4.0114170
  13.2134054  41.7103275   4.3869416  14.7117742  41.7463734   4.6001781
  15.9523874  41.1334237   5.6338466  16.5054912  41.5529690   6.2928489
  16.1893960  40.2069985   5.6761422  11.9756973  47.1221311  21.4141230
  11.8753700  48.0715668  21.3453321  11.7578515  46.7939549  20.5417300
  19.3302681  43.2434762   5.1417131  18.7501350  43.9019566   4.7595183
  19.0638613  42.4212107   4.7304548  17.7806247  42.6439820   7.3438451
  18.2806025  42.7556354   6.5352770  18.4241855  42.3400873   7.9839259
  11.8388243  50.5518449  20.2306292  11.3555325  51.3518810  20.4370181
  11.9249182  50.5626394  19.2773736   7.7661580  54.4422984  12.2674726
   8.7204834  54.4106926  12.2004657   7.5674104  53.9813608  13.0824952
   8.3560963  53.0124100  14.8345523   9.1753852  53.5068179  14.8580361
   8.6297770  52.0956068  14.8063091  18.1127559  45.4034852   4.1973479
  17.2253414  45.6884503   3.9793674  18.5281548  45.2428616   3.3500756
  21.4642095  45.4281373   7.9127818  22.2402485  45.9177826   8.1852435
  20.7390229  45.8539428   8.3699688  23.9014653  46.1408993   8.9701759
  24.4959144  45.9004729   8.2595067  23.9741237  45.4216123   9.5975295
  18.0868582  50.9189388   4.4123769  18.0303784  51.3757940   3.5731401
  18.6396925  50.1580073   4.2346612  21.8973388  46.7079120   5.2373888
  21.6410323  46.3075756   6.0682096  21.2726256  47.4222914   5.1124028
  26.2085726  49.4475194   7.7445180  25.6485284  49.5168383   8.5176742
  25.6029230  49.2716178   7.0244676   3.6095877  47.3462234  15.5337720
   4.2554740  46.8361188  16.0224946   3.4013028  48.0830916  16.1081146
  16.1349269  54.4143082  21.0329861  17.0040429  54.5883734  20.6716496
  15.6556020  55.2337498  20.9105590  12.1299487  41.6102279   1.2861617
  12.1178157  42.5544119   1.4429887  13.0222909  41.4272424   0.9921078
  15.9451607  38.2045055   5.5407553  15.1784003  37.6503542   5.6864236
  16.3562312  38.2766924   6.4021705   7.9493368  44.4929851  19.6312735
   8.8124829  44.1366656  19.8416059   7.3758778  44.1543746  20.3188139
  27.7941745  66.1231707  10.4375136  28.4320155  66.0038455   9.7338476
  27.6762588  67.0712551  10.4963088  24.6031451  66.0759136  10.3736660
  24.2649962  65.9600200   9.4857195  25.4721219  65.6750301  10.3537666
  25.0851234  67.2293987  16.3322866  25.0739875  66.8346786  15.4603369
  25.2471873  66.4960060  16.9256637  22.7314702  67.3907948  11.8703409
  23.3278274  67.1663970  11.1560372  22.7889673  66.6492693  12.4728857
  27.3483013  63.8483161   7.5128344  28.1346102  63.4302584   7.1618761
  27.6121717  64.7529253   7.6809992  32.7491440  63.7858395   8.4161322
  33.4816612  63.2157611   8.6499152  31.9930796  63.3979995   8.8567828
  30.2716861  57.4979969  12.8755931  29.9400185  58.3675380  12.6517146
  29.6762474  57.1816253  13.5549961  30.1645524  62.2175055   9.9549281
  29.2562401  62.1490463   9.6608042  30.1133120  62.6947000  10.7831106
  24.2386390  63.6364700  17.8984178  23.4619724  64.1958621  17.8887043
  24.8776953  64.1221483  18.4199048  32.0307170  60.4191493  11.7327155
  31.3881551  60.7124026  11.0866949  31.5262099  60.3044414  12.5380351
  22.4932762  66.4450154  17.4602145  23.2347446  66.9835198  17.1836969
  21.7869748  67.0716442  17.6173697  27.9688102  68.5879294  16.0574307
  28.3771458  68.1461705  15.3128939  27.2465363  68.0131922  16.3108499
  24.3219172  63.5251901  13.4307864  25.1680367  63.9491315  13.5742513
  24.2617809  62.8685525  14.1246427  28.2916916  69.1480485   9.8126595
  27.6625779  69.3126199   9.1102663  27.9042578  69.5622094  10.5837559
  27.4718617  61.1856269  15.0889037  27.2279549  61.9398330  14.5523313
  27.7478548  61.5641617  15.9236284  29.4257080  67.7294882  13.7666303
  29.6373975  68.3726642  13.0900684  29.3786828  66.8957198  13.2988233
  27.0283309  60.3412702  10.6702875  26.1667788  60.6393956  10.9619612
  27.0545743  60.5583101   9.7383908  21.2294126  63.5989802  18.2617455
  20.5992786  64.2806083  18.4952852  21.1230214  63.4872884  17.3170593
  30.5402908  70.6066837  11.9388660  31.3620352  70.2047024  11.6571342
  30.5365311  70.5035071  12.8904776  14.8076801  63.5192088  11.6198370
  15.0584840  64.4039098  11.8855946  15.3436350  63.3396690  10.8473462
  23.4242830  59.3168447  18.2162963  24.1652543  59.9175600  18.1367425
  23.6560752  58.5746085  17.6581005  18.5684168  64.5024814  16.4941192
  18.4537683  63.6010071  16.7948291  17.7128685  64.7488511  16.1426009
  27.3699992  55.3449550  12.4927244  27.0264262  56.2351191  12.4166355
  27.7378955  55.1551207  11.6296829  24.9197386  60.1807862   6.0584918
  24.0638983  59.7914712   5.8790557  25.3324338  60.2599822   5.1984703
  26.4496533  57.7154205  10.4576478  25.9461328  57.6784340   9.6444283
  26.7427140  58.6246948  10.5173134  22.6939419  57.7992935   9.4642659
  23.5592416  57.6035743   9.1048549  22.7616928  57.5703286  10.3912016
  30.5475856  67.5624497   9.5919461  29.8899531  68.2523758   9.6799590
  31.3516255  67.9520929   9.9353447  20.3001738  60.0295143   6.8359026
  20.8745490  59.8070324   6.1032219  20.8872720  60.0983837   7.5887627
  22.6024406  56.9036391   5.5634096  21.9488818  56.5885409   4.9390710
  22.5604880  56.2812132   6.2893919  25.8362146  63.3918325   9.8881743
  24.9184707  63.6133272   9.7303431  26.2522290  63.4664636   9.0293451
  29.0676031  61.8266857   7.0003213  28.3298788  61.3144243   7.3313455
  29.3202804  61.3867239   6.1886490  29.1687658  54.6043109   7.5944982
  29.4746535  53.7440472   7.3070897  29.8940263  55.1960729   7.3943976
  23.4408738  64.8996902   8.1021173  23.4957348  63.9470738   8.0263650
  22.6299940  65.0556341   8.5862472  26.9775309  63.9815786  14.6926446
  27.3324697  64.2087259  15.5520912  27.6247441  64.3134163  14.0703701
  20.8715173  61.0892317  11.4772787  21.5114552  60.9481076  10.7795750
  20.0392703  60.8026831  11.1011389  19.3468714  62.4730399  13.4244598
  20.0191768  62.2647762  12.7757247  18.5198501  62.2752485  12.9849831
  33.5957976  69.2134450  12.9419932  33.7893866  70.1180260  13.1879207
  33.4958594  68.7541869  13.7758517  25.2494286  59.0992340  15.4410259
  24.6022201  59.7982290  15.3474736  26.0195302  59.5328484  15.8086507
  28.6573084  69.3641193  18.5160812  28.5058591  69.1351744  17.5990896
  28.6477764  70.3211794  18.5292157  25.4258421  66.9373105  13.5007079
  26.3550481  67.0884265  13.3276046  25.0049451  67.0257126  12.6455725
  19.7496212  65.7473002  14.1847035  19.6116009  65.0153241  14.7858574
  20.6601135  65.6581903  13.9031223  22.3778512  65.4592962  13.6730715
  23.0878131  64.8186154  13.6317333  22.3347820  65.7105857  14.5956896
  21.0907446  62.4458180  15.4926355  20.5544803  61.9948918  16.1447951
  20.5024155  62.5804088  14.7496819  30.3682698  70.3599899  14.8251274
  29.4809477  70.0225821  14.9477673  30.9381249  69.6282930  15.0620039
  16.8246567  61.5814187  12.5779349  16.7404756  60.9739857  11.8429759
  16.0029274  62.0723206  12.5788845  26.9970281  60.0667751   7.9449544
  27.4938981  59.3137713   7.6250614  26.2257263  60.1032068   7.3792753
  23.5805250  62.2085134   7.6721229  23.2103038  61.6556174   8.3602134
  24.0764343  61.6043267   7.1196229  29.4389276  57.0337344  10.0928903
  28.5252356  57.2641571  10.2611110  29.8682378  57.1175788  10.9442935
  29.2095735  65.2227236  12.5928797  28.5567185  65.4703144  11.9381250
  29.5876114  64.4091375  12.2591274  25.2583308  65.9647047  19.0794834
  24.5823945  65.8641177  19.7497209  26.0810941  65.8086261  19.5430831
  18.9770584  59.6189125  13.9174335  19.0411910  60.4803956  13.5051732
  18.9137704  59.0063126  13.1846693  18.4522856  61.6912257  17.5647369
  19.0794895  61.3089335  18.1784893  17.5950775  61.4726459  17.9303062
  18.7582646  61.5744683   9.4793272  18.0369232  62.1880651   9.3400746
  19.5475902  62.1102448   9.4009918  21.5608960  58.9099109  15.7533924
  22.0843361  59.1561406  16.5160234  21.3421293  59.7419144  15.3337062
  22.7661505  59.8512804  13.4383595  22.4258325  59.0520618  13.8404275
  22.0600511  60.1514515  12.8660428  23.4177976  56.9362117  11.8910918
  24.2404046  56.4622595  11.7689808  23.6616040  57.7152601  12.3909604
  20.9416555  63.6281238   9.7002896  20.7961136  63.9421541  10.5927178
  20.4641759  64.2466138   9.1473795  22.8012938  60.6183786   9.7483786
  22.7874507  59.7224879   9.4116084  23.5185366  60.6254449  10.3822072
  24.6539069  61.0521126  11.7936913  24.3956847  61.9738196  11.7921244
  24.1224109  60.6551560  12.4837377  22.2049834  59.4998166   5.0171356
  22.3265745  58.5714812   5.2162244  21.9151876  59.5136852   4.1049671
  25.0741024  57.1853076   8.1538076  25.0962721  57.2492409   7.1990055
  25.4909083  56.3457585   8.3478582  16.2028239  65.2956478  15.5320714
  15.4609975  65.4439114  16.1185345  15.8820983  65.5564744  14.6687464
  21.6890914  61.0130163  19.2261289  21.7379069  61.8892286  18.8439058
  22.2313428  60.4707556  18.6532932  32.2943634  68.4063753  15.8195154
  32.3441639  68.2413760  16.7610677  32.1857558  67.5391012  15.4293035
  29.5847397  64.3894681  17.1354461  30.4857259  64.2501146  16.8438459
  29.6595371  64.5549136  18.0752638  23.9190202  61.7661536  15.9807647
  23.0493511  62.0595102  15.7090236  24.1549682  62.3501981  16.7014911
  33.7961831  70.8260694  16.0637176  33.5046639  71.1890675  16.9000637
  33.1833962  70.1127703  15.8850508  32.0449019  65.9493309  14.5317234
  32.5203141  66.1420955  13.7236085  31.1214585  66.0052495  14.2860617
  26.6229236  57.9841153  13.4973068  27.1411180  58.7202179  13.1719556
  26.2684369  58.2905146  14.3319827  26.8741830  54.4041435   9.0173964
  27.1543584  53.7364624   9.6434391  27.6592437  54.5970531   8.5048628
  30.7450688  62.8259069  12.7645539  31.6968111  62.9257167  12.7857763
  30.5754139  62.0337338  13.2743624  28.7665068  59.9114652  12.9504940
  28.1715000  60.1919665  12.2551429  28.4814764  60.4008553  13.7221681
  33.2238766  66.0465189  11.8787839  33.1915086  65.1081189  12.0647523
  33.8339390  66.1249225  11.1453664  33.3733255  62.8376232  11.9246122
  32.8572303  62.0534689  11.7376051  34.2573203  62.5094949  12.0892642
  31.0343981  56.5817248   7.8841935  30.8368803  56.2732336   8.7685267
  31.6443687  57.3078887   8.0139865  37.1230613  65.2489058  11.6168327
  36.3963777  65.1145023  11.0084819  36.7077900  65.5565887  12.4225045
  24.9460789  68.9678988  19.3815700  25.8663799  69.1457587  19.5755747
  24.9110373  68.0235033  19.2295399  24.8627080  57.3848108   4.0114170
  24.0527808  57.0395193   4.3869416  25.5511497  57.0755652   4.6001781
  26.7917628  56.4626155   5.6338466  27.3448667  56.8821608   6.2928489
  27.0287714  55.5361903   5.6761422  22.8150727  62.4513228  21.4141230
  22.7147454  63.4007585  21.3453321  22.5972269  62.1231467  20.5417300
  30.1696435  58.5726680   5.1417131  29.5895104  59.2311484   4.7595183
  29.9032368  57.7504024   4.7304548  28.6200002  57.9731737   7.3438451
  29.1199780  58.0848272   6.5352770  29.2635609  57.6692790   7.9839259
  22.6781997  65.8810367  20.2306292  22.1949079  66.6810727  20.4370181
  22.7642936  65.8918312  19.2773736  32.3035849  60.7573291   7.9127818
  33.0796239  61.2469744   8.1852435  31.5783984  61.1831345   8.3699688
  34.7408408  61.4700910   8.9701759  35.3352899  61.2296646   8.2595067
  34.8134992  60.7508041   9.5975295  14.4489631  62.6754152  15.5337720
  15.0948495  62.1653106  16.0224946  14.2406782  63.4122833  16.1081146
  22.9693242  56.9394196   1.2861617  22.9571912  57.8836036   1.4429887
  23.8616664  56.7564342   0.9921078  26.7845361  53.5336973   5.5407553
  26.0177757  52.9795460   5.6864236  27.1956066  53.6058842   6.4021705
  18.7887122  59.8221769  19.6312735  19.6518584  59.4658574  19.8416059
  18.2152533  59.4835664  20.3188139  14.8082252  34.1212759   4.8174000
  14.3646106  33.3349138   4.4994904  15.4699466  34.3091910   4.1517890
  16.9063490  34.4015559   2.8455401  16.8881965  35.2224440   2.3535670
  17.8283410  34.2769634   3.0705542  17.8179331  31.0411397   5.2406119
  17.6664837  30.8121949   4.3236203  17.8084010  31.9981999   5.2537464
  19.5271538  34.0730520   3.3182601  19.4684084  33.3889740   2.6513184
  19.9291056  34.8149510   2.8663227  14.4189554  27.6417252   5.8040141
  13.7430191  27.5411382   6.4742516  15.2417188  27.4856466   6.2676138
  13.1612337  38.9484180   0.0397757  13.7130645  39.1115801   0.8046842
  13.5018531  39.5388618  -0.6322218  18.0123212  33.7745437   5.8946411
  18.5563116  34.3875396   5.4001366  17.4310056  34.3325016   6.4113424
  13.3078149  36.5142661   2.0546411  13.6165275  36.2691808   2.9269111
  14.1053631  36.7189300   1.5665281  21.3352006  33.2341491   5.2307732
  20.5447550  33.2165630   4.6912232  21.0985361  33.7729785   5.9856769
  21.4549881  30.0833958   2.5440461  21.5047886  29.9183965   3.4855984
  21.3463804  29.2161217   2.1538342  22.9568078  32.5030899   2.7882482
  22.6652886  32.8660880   3.6245943  22.3440209  31.7897908   2.6095815
  14.1067036  30.6449193   6.1061007  15.0270046  30.8227792   6.3001053
  14.0716619  29.7005238   5.9540706  16.1349270  31.4205204   7.7575168
  17.0040430  31.5945856   7.3961802  15.6556022  32.2399621   7.6350897
  27.7941746  43.1293830  -2.8379558  28.4320156  43.0100577  -3.5416218
  27.6762589  44.0774674  -2.7791606  24.6031452  43.0821258  -2.9018033
  24.2649964  42.9662323  -3.7897498  25.4721220  42.6812423  -2.9217027
  25.0851235  44.2356110   3.0568172  25.0739876  43.8408908   2.1848676
  25.2471875  43.5022182   3.6501944  21.8058496  47.0193222   2.0047356
  21.5148362  47.9238853   1.8894023  22.4415481  47.0609749   2.7191426
  22.7314703  44.3970070  -1.4051284  23.3278275  44.1726093  -2.1194321
  22.7889675  43.6554816  -0.8025836  27.3483014  40.8545284  -5.7626350
  28.1346104  40.4364707  -6.1135933  27.6121719  41.7591376  -5.5944701
  32.7491442  40.7920517  -4.8593371  33.4816614  40.2219734  -4.6255542
  31.9930797  40.4042118  -4.4186866  30.2716862  34.5042091  -0.3998763
  29.9400187  35.3737502  -0.6237548  29.6762475  34.1878375   0.2795268
  26.7648381  46.7054637  -1.0002850  26.4649105  47.6079676  -1.1087043
  26.4199441  46.4386820  -0.1481697  30.1645525  39.2237177  -3.3205413
  29.2562403  39.1552586  -3.6146652  30.1133121  39.7009122  -2.4923587
  24.2386391  40.6426823   4.6229485  23.4619725  41.2020743   4.6132349
  24.8776954  41.1283606   5.1444355  32.0307172  37.4253616  -1.5427539
  31.3881552  37.7186149  -2.1887744  31.5262100  37.3106536  -0.7374342
  22.4932763  43.4512276   4.1847452  23.2347448  43.9897320   3.9082275
  21.7869749  44.0778565   4.3419003  27.9688103  45.5941417   2.7819613
  28.3771459  45.1523827   2.0374246  27.2465364  45.0194044   3.0353806
  24.3219173  40.5314024   0.1553170  25.1680368  40.9553437   0.2987819
  24.2617811  39.8747648   0.8491733  28.2916918  46.1542607  -3.4628098
  27.6625780  46.3188322  -4.1652030  27.9042580  46.5684217  -2.6917134
  27.4718618  38.1918392   1.8134344  27.2279550  38.9460452   1.2768619
  27.7478549  38.5703740   2.6481591  29.4257081  44.7357004   0.4911609
  29.6373976  45.3788764  -0.1854010  29.3786829  43.9019321   0.0233539
  27.0283310  37.3474825  -2.6051819  26.1667789  37.6456079  -2.3135081
  27.0545745  37.5645224  -3.5370786  20.7368961  45.4388497  -3.2598250
  21.3070318  45.8675765  -3.8980765  21.3277072  45.1571082  -2.5614064
  21.2294127  40.6051925   4.9862762  20.5992788  41.2868205   5.2198159
  21.1230215  40.4935006   4.0415900  30.5402909  47.6128960  -1.3366033
  31.3620353  47.2109147  -1.6183352  30.5365312  47.5097194  -0.3849918
  24.3059512  47.1613003   0.8194677  24.3703945  47.6233410   1.6552849
  23.5970436  46.5310368   0.9476987  20.5074870  34.9072690   7.3488013
  20.1141815  34.3538889   8.0235657  21.3241010  35.2183269   7.7394530
  23.4242831  36.3230569   4.9408269  24.1652544  36.9237723   4.8612732
  23.6560754  35.5808207   4.3826312  18.5684169  41.5086937   3.2186499
  18.4537684  40.6072194   3.5193598  17.7128687  41.7550633   2.8671316
  25.6476007  49.4504677   4.8174000  25.2039861  48.6641056   4.4994904
  26.3093220  49.6383828   4.1517890  27.7457245  49.7307477   2.8455401
  27.7275720  50.5516358   2.3535670  28.6677165  49.6061552   3.0705542
  24.2030299  47.2451606   3.6878909  24.7358636  46.4839895   3.4578217
  23.6744380  46.9525258   4.4303064  27.3699994  32.3511672  -0.7827449
  27.0264263  33.2413314  -0.8588338  27.7378956  32.1613330  -1.6457864
  30.5475857  44.5686619  -3.6835232  29.8899532  45.2585881  -3.5955104
  31.3516257  44.9583051  -3.3401246  25.8362147  40.3980448  -3.3872950
  24.9184709  40.6195395  -3.5451262  26.2522291  40.4726758  -4.2461243
  23.4408739  41.9059025  -5.1733520  23.4957349  40.9532861  -5.2491044
  22.6299941  42.0618464  -4.6892222  26.9775311  40.9877909   1.4171753
  27.3324698  41.2149382   2.2766218  27.6247442  41.3196286   0.7949008
  20.8715174  38.0954440  -1.7981906  21.5114553  37.9543199  -2.4958943
  20.0392704  37.8088953  -2.1743304  26.4670322  49.7774966  -1.3334546
  26.5207344  50.3465902  -0.5656830  25.5985104  49.9476851  -1.6980509
  19.3468716  39.4792522   0.1489905  20.0191769  39.2709884  -0.4997446
  18.5198502  39.2814608  -0.2904863  33.5957977  46.2196572  -0.3334762
  33.7893867  47.1242383  -0.0875487  33.4958595  45.7603991   0.5003823
  25.2494288  36.1054463   2.1655566  24.6022203  36.8044413   2.0720042
  26.0195303  36.5390607   2.5331814  28.6573086  46.3703315   5.2406119
  28.5058592  46.1413867   4.3236203  28.6477765  47.3273917   5.2537464
  25.4258422  43.9435228   0.2252385  26.3550482  44.0946388   0.0521353
  25.0049452  44.0319249  -0.6298968  24.2246754  47.9685892  -2.0049077
  24.0857839  47.6004677  -1.1323139  23.4361350  48.4833532  -2.1765119
  25.7751969  47.3467495  -4.6160239  25.4401801  47.3068265  -3.7202589
  25.2755915  46.6812211  -5.0889829  19.7496213  42.7535125   0.9092342
  19.6116011  42.0215364   1.5103881  20.6601136  42.6644025   0.6276530
  22.3778513  42.4655084   0.3976022  23.0878132  41.8248277   0.3562640
  22.3347822  42.7167979   1.3202202  30.3665292  49.4022438   3.3182601
  30.3077838  48.7181658   2.6513184  30.7684811  50.1441428   2.8663227
  21.0907447  39.4520302   2.2171661  20.5544804  39.0011041   2.8693258
  20.5024156  39.5866211   1.4742126  30.3682699  47.3662022   1.5496581
  29.4809478  47.0287943   1.6722979  30.9381250  46.6345053   1.7865346
  26.3582536  51.9250308   0.6715982  27.0710509  52.5597773   0.5991884
  25.8672565  52.0214174  -0.1444016  21.4094450  49.6744751   1.4921553
  22.1103909  50.3081234   1.6450947  20.9389565  50.0159483   0.7317193
  29.4389277  34.0399467  -3.1825790  28.5252357  34.2703694  -3.0143583
  29.8682379  34.1237911  -2.3311758  29.2095736  42.2289359  -0.6825896
  28.5567186  42.4765266  -1.3373444  29.5876116  41.4153497  -1.0163419
  25.2583309  42.9709170   5.8040141  24.5823946  42.8703299   6.4742516
  26.0810943  42.8148384   6.2676138  24.0006092  54.2776097   0.0397757
  24.5524400  54.4407719   0.8046842  24.3412285  54.8680535  -0.6322218
  18.9770585  36.6251247   0.6419641  19.0411911  37.4866078   0.2297039
  18.9137705  36.0125249  -0.0908000  18.4522857  38.6974380   4.2892676
  19.0794896  38.3151457   4.9030200  17.5950776  38.4788582   4.6548368
  28.8516966  49.1037355   5.8946411  29.3956870  49.7167313   5.4001366
  28.2703811  49.6616933   6.4113424  29.2009387  50.0267093  -1.3459011
  28.2539723  49.9072444  -1.4180684  29.5492161  49.1389591  -1.2632750
  21.5608961  35.9161232   2.4779231  22.0843363  36.1623529   3.2405540
  21.3421294  36.7481267   2.0582368  22.7661506  36.8574927   0.1628901
  22.4258326  36.0582740   0.5649581  22.0600512  37.1576638  -0.4094265
  23.4177978  33.9424239  -1.3843776  24.2404047  33.4684718  -1.5064885
  23.6616041  34.7214723  -0.8845089  20.9416556  40.6343360  -3.5751797
  20.7961137  40.9483663  -2.6827515  20.4641760  41.2528260  -4.1280898
  24.6539070  38.0583248  -1.4817780  24.3956848  38.9800319  -1.4833450
  24.1224110  37.6613683  -0.7917316  16.2028240  42.3018601   2.2566021
  15.4609976  42.4501236   2.8430651  15.8820985  42.5626866   1.3932770
  24.1471903  51.8434579   2.0546411  24.4559030  51.5983726   2.9269111
  24.9447385  52.0481217   1.5665281  21.6890915  38.0192286   5.9506595
  21.7379070  38.8954409   5.5684365  22.2313429  37.4769679   5.3778239
  32.1745760  48.5633409   5.2307732  31.3841304  48.5457548   4.6912232
  31.9379115  49.1021703   5.9856769  32.2943635  45.4125875   2.5440461
  32.3441640  45.2475883   3.4855984  32.1857559  44.5453134   2.1538342
  29.5847398  41.3956803   3.8599768  30.4857261  41.2563268   3.5683765
  29.6595372  41.5611258   4.7997945  23.9190203  38.7723658   2.7052954
  23.0493513  39.0657224   2.4335542  24.1549684  39.3564103   3.4260218
  33.7961832  47.8322817   2.7882482  33.5046641  48.1952797   3.6245943
  33.1833964  47.1189825   2.6095815  32.0449021  42.9555432   1.2562540
  32.5203142  43.1483078   0.4481392  31.1214586  43.0114617   1.0105924
  26.6229237  34.9903275   0.2218374  27.1411181  35.7264302  -0.1035137
  26.2684370  35.2967268   1.0565133  30.7450690  39.8321192  -0.5109154
  31.6968112  39.9319289  -0.4896930  30.5754140  39.0399460  -0.0011070
  28.7665069  36.9176775  -0.3249753  28.1715001  37.1981788  -1.0203264
  28.4814766  37.4070676   0.4466988  33.2238767  43.0527311  -1.3966854
  33.1915087  42.1143312  -1.2107170  33.8339391  43.1311348  -2.1301029
  33.3733256  39.8438355  -1.3508571  32.8572304  39.0596811  -1.5378642
  34.2573204  39.5157071  -1.1862052  37.1230614  42.2551181  -1.6586366
  36.3963778  42.1207146  -2.2669875  36.7077901  42.5628009  -0.8529648
  24.9460791  45.9741110   6.1061007  25.8663800  46.1519709   6.3001053
  24.9110374  45.0297156   5.9540706  17.9422863  43.8842145  -1.2516212
  18.1608873  44.8159253  -1.2328178  18.3548637  43.5250119  -0.4661408
  22.8150729  39.4575351   8.1386537  22.7147455  40.4069708   8.0698628
  22.5972271  39.1293590   7.2662607  22.6781999  42.8872490   6.9551598
  22.1949080  43.6872850   7.1615487  22.7642938  42.8980435   6.0019042
  18.6055336  46.7777024  -1.0079968  19.5598590  46.7460967  -1.0750036
  18.4067860  46.3167648  -0.1929742  19.1954718  45.3478140   1.5590830
  20.0147607  45.8422219   1.5825667  19.4691526  44.4310109   1.5308397
  32.3035851  37.7635414  -5.3626875  33.0796241  38.2531866  -5.0902259
  31.5783985  38.1893468  -4.9055006  34.7408409  38.4763033  -4.3052935
  35.3352900  38.2358769  -5.0159626  34.8134993  37.7570164  -3.6779398
  14.4489633  39.6816274   2.2583027  15.0948496  39.1715228   2.7470252
  14.2406784  40.4184956   2.8326452  26.9743025  46.7497122   7.7575168
  27.8434184  46.9237774   7.3961802  26.4949776  47.5691539   7.6350897
  18.7887124  36.8283891   6.3558041  19.6518585  36.4720696   6.5661366
  18.2152534  36.4897786   7.0433445  35.0780145  55.9718741   4.6229485
  34.3013480  56.5312661   4.6132349  35.7170709  56.4575524   5.1444355
  32.0687882  55.9343842   4.9862762  31.4386542  56.6160123   5.2198159
  31.9623969  55.8226924   4.0415900  31.3468624  50.2364608   7.3488013
  30.9535570  49.6830807   8.0235657  32.1634765  50.5475187   7.7394530
  34.2636585  51.6522487   4.9408269  35.0046299  52.2529640   4.8612732
  34.4954508  50.9100125   4.3826312  29.4077923  56.8378854   3.2186499
  29.2931438  55.9364112   3.5193598  28.5522441  57.0842551   2.8671316
  36.0888042  51.4346381   2.1655566  35.4415957  52.1336330   2.0720042
  36.8589057  51.8682525   2.5331814  29.8164339  51.9543165   0.6419641
  29.8805666  52.8157996   0.2297039  29.7531460  51.3417167  -0.0908000
  29.2916612  54.0266297   4.2892676  29.9188651  53.6443375   4.9030200
  28.4344531  53.8080499   4.6548368  32.4002715  51.2453150   2.4779231
  32.9237117  51.4915446   3.2405540  32.1815049  52.0773184   2.0582368
  32.5284669  53.3484203   5.9506595  32.5772825  54.2246326   5.5684365
  33.0707183  52.8061596   5.3778239  33.6544483  54.7867269   8.1386537
  33.5541210  55.7361625   8.0698628  33.4366025  54.4585507   7.2662607
  33.5175753  58.2164407   6.9551598  33.0342835  59.0164767   7.1615487
  33.6036692  58.2272352   6.0019042  25.2883387  55.0108192   2.2583027
  25.9342251  54.5007146   2.7470252  25.0800538  55.7476874   2.8326452
  29.6280878  52.1575809   6.3558041  30.4912340  51.8012614   6.5661366
  29.0546289  51.8189704   7.0433445
  71.2421497  71.2421497  71.2421497 109.4712190 109.4712190 109.4712190
